
# --------Parameter for debug------------------------
#variable       insertname string in.particles
#variable       norm_press equal 1.0e6
#variable       fric equal 0.1                             # friction coefficient used in sample preparation
variable        insertname2 string in.particles_wall
variable        fric_wall equal 0.1                        # friction coefficient used in sample preparation
variable        length equal 0.04
variable        depth equal 0.02
variable        shear_rate equal 0.1
variable        shear_strain equal 2.0
variable        delta_strain equal 0.01
variable        time_step equal 5e-8

variable        applied_force equal ${norm_press}*${length}*${depth}
variable        applied_force equal 1e6*${length}*${depth}
variable        applied_force equal 1e6*0.04*${depth}
variable        applied_force equal 1e6*0.04*0.02
variable        delta_time equal ${delta_strain}/${shear_rate}
variable        delta_time equal 0.01/${shear_rate}
variable        delta_time equal 0.01/0.1
#variable       cycle_dump equal ${delta_time}/${time_step}
variable        cycle_dump equal 10000

variable        max_vel equal 0.1
variable        max_vel_consolidation equal 0.1
variable        max_vel_servo equal 0.1

# --------Initialization------------------------
units           si
dimension       3
boundary        p f p
newton          off
atom_style      granular
atom_modify     map array
neighbor        0.002 bin
neigh_modify    delay 0
communicate     single vel yes
region          reg  block 0.0 0.04 -0.008 0.018 0.0 0.020
create_box      3 reg
Created orthogonal box = (0 -0.008 0) to (0.04 0.018 0.02)
  4 by 2 by 2 MPI processor grid

# --------Material property settings------------------------
fix             m1 all property/global youngsModulus peratomtype 65e9 65e9 65e9
fix             m2 all property/global poissonsRatio peratomtype 0.25 0.25 0.25
fix             m3 all property/global coefficientRestitution peratomtypepair 3 0.87 1.0 1.0 1.0 1.0 1.0 1.0 1.0 1.0
fix             m4 all property/global coefficientFriction peratomtypepair 3 ${fric} ${fric_wall} 0 ${fric_wall} 0 0 0 0 0
fix             m4 all property/global coefficientFriction peratomtypepair 3 0.1 ${fric_wall} 0 ${fric_wall} 0 0 0 0 0
fix             m4 all property/global coefficientFriction peratomtypepair 3 0.1 0.1 0 ${fric_wall} 0 0 0 0 0
fix             m4 all property/global coefficientFriction peratomtypepair 3 0.1 0.1 0 0.1 0 0 0 0 0
pair_style      gran model hertz tangential history
pair_coeff      * *
timestep        ${time_step}
timestep        5e-08

#--------Particles and wall insert and setting------------------------
jump            ${insertname} insert
jump            in.particles-1 insert
create_atoms 1 single 0.00698241 0.00584945 0.01130599
Created 1 atoms
create_atoms 1 single 0.03690709 -.00211710 0.00259032
Created 1 atoms
create_atoms 1 single 0.02030496 0.00482328 0.00257824
Created 1 atoms
create_atoms 1 single 0.03141434 0.00791050 0.01410131
Created 1 atoms
create_atoms 1 single 0.01036386 0.00381610 0.00804719
Created 1 atoms
create_atoms 1 single 0.02067336 0.00912424 0.00286151
Created 1 atoms
create_atoms 1 single 0.02366583 0.00679380 0.01763364
Created 1 atoms
create_atoms 1 single 0.02318105 -.00339675 0.01713799
Created 1 atoms
create_atoms 1 single 0.01950140 0.00947581 0.01757730
Created 1 atoms
create_atoms 1 single 0.03578909 0.01009921 0.00755806
Created 1 atoms
create_atoms 1 single 0.02892334 0.00626851 0.01329218
Created 1 atoms
create_atoms 1 single 0.03388609 0.01026762 0.00809949
Created 1 atoms
create_atoms 1 single 0.02871490 0.00613756 0.00990808
Created 1 atoms
create_atoms 1 single 0.02248755 0.00559427 0.00339785
Created 1 atoms
create_atoms 1 single 0.03819998 0.01345898 0.00913157
Created 1 atoms
create_atoms 1 single 0.03074149 0.00831116 0.01547270
Created 1 atoms
create_atoms 1 single 0.00313796 0.01294390 0.01127013
Created 1 atoms
create_atoms 1 single 0.03048224 -.00310346 0.01341365
Created 1 atoms
create_atoms 1 single 0.03897905 0.00119538 0.00964021
Created 1 atoms
create_atoms 1 single 0.03819149 0.00584679 0.01320507
Created 1 atoms
create_atoms 1 single 0.00293775 0.00483011 0.00830728
Created 1 atoms
create_atoms 1 single 0.02500190 0.00980275 0.00205731
Created 1 atoms
create_atoms 1 single 0.02778401 0.01244452 0.00732554
Created 1 atoms
create_atoms 1 single 0.02941287 0.01135625 0.00975860
Created 1 atoms
create_atoms 1 single 0.00996490 0.01185676 0.01546129
Created 1 atoms
create_atoms 1 single 0.01557482 -.00289878 0.00494977
Created 1 atoms
create_atoms 1 single 0.00905427 0.01306869 0.01502289
Created 1 atoms
create_atoms 1 single 0.00527139 0.01021091 0.01653390
Created 1 atoms
create_atoms 1 single 0.01057202 0.01068950 0.01096012
Created 1 atoms
create_atoms 1 single 0.02138810 0.00188387 0.00196418
Created 1 atoms
create_atoms 1 single 0.02922425 0.00299209 0.00808725
Created 1 atoms
create_atoms 1 single 0.00352877 0.00934864 0.00748222
Created 1 atoms
create_atoms 1 single 0.01813429 0.00425347 0.01170513
Created 1 atoms
create_atoms 1 single 0.03590819 0.01187633 0.00477542
Created 1 atoms
create_atoms 1 single 0.02947760 0.01328774 0.00629352
Created 1 atoms
create_atoms 1 single 0.02950883 0.00332931 0.00904530
Created 1 atoms
create_atoms 1 single 0.00669902 -.00278227 0.00514885
Created 1 atoms
create_atoms 1 single 0.00574095 0.01344912 0.01260161
Created 1 atoms
create_atoms 1 single 0.03033149 0.01296915 0.00327474
Created 1 atoms
create_atoms 1 single 0.02199850 0.01191071 0.01370045
Created 1 atoms
create_atoms 1 single 0.03408987 0.00533191 0.00900047
Created 1 atoms
create_atoms 1 single 0.02467572 0.00591401 0.01558597
Created 1 atoms
create_atoms 1 single 0.00187305 0.01050592 0.01935912
Created 1 atoms
create_atoms 1 single 0.00832346 0.00838878 0.01388714
Created 1 atoms
create_atoms 1 single 0.03182983 0.01094468 0.01335848
Created 1 atoms
create_atoms 1 single 0.02112409 0.00840228 0.01478955
Created 1 atoms
create_atoms 1 single 0.01836997 0.00763921 0.00113962
Created 1 atoms
create_atoms 1 single 0.00630681 0.00713382 0.00450613
Created 1 atoms
create_atoms 1 single 0.03693213 -.00202554 0.01183670
Created 1 atoms
create_atoms 1 single 0.03245777 0.00287706 0.01819578
Created 1 atoms
create_atoms 1 single 0.02099296 0.01176741 0.00991834
Created 1 atoms
create_atoms 1 single 0.02608940 0.00986256 0.00437215
Created 1 atoms
create_atoms 1 single 0.00930688 0.00617842 0.01379386
Created 1 atoms
create_atoms 1 single 0.02855336 0.00168083 0.00793436
Created 1 atoms
create_atoms 1 single 0.01722065 0.01133579 0.00622937
Created 1 atoms
create_atoms 1 single 0.03460175 0.00846417 0.01297807
Created 1 atoms
create_atoms 1 single 0.01731377 -.00037350 0.00661594
Created 1 atoms
create_atoms 1 single 0.01009543 -.00338188 0.00318029
Created 1 atoms
create_atoms 1 single 0.03350340 0.00056406 0.01784134
Created 1 atoms
create_atoms 1 single 0.03790225 -.00285311 0.01861590
Created 1 atoms
create_atoms 1 single 0.00833746 0.00400784 0.00058842
Created 1 atoms
create_atoms 1 single 0.00774848 -.00311915 0.00873090
Created 1 atoms
create_atoms 1 single 0.01958402 0.00445355 0.01742144
Created 1 atoms
create_atoms 1 single 0.01889575 0.01348923 0.00322581
Created 1 atoms
create_atoms 1 single 0.02705068 0.00317902 0.00144752
Created 1 atoms
create_atoms 1 single 0.00190350 0.01310096 0.01190139
Created 1 atoms
create_atoms 1 single 0.03768094 0.00678795 0.01612656
Created 1 atoms
create_atoms 1 single 0.02893069 0.00958529 0.00504859
Created 1 atoms
create_atoms 1 single 0.02849223 0.01235518 0.01416433
Created 1 atoms
create_atoms 1 single 0.02817650 0.00765050 0.00699961
Created 1 atoms
create_atoms 1 single 0.03614563 0.01276168 0.00938736
Created 1 atoms
create_atoms 1 single 0.02492293 -.00325311 0.00993331
Created 1 atoms
create_atoms 1 single 0.02361076 0.00277157 0.01793947
Created 1 atoms
create_atoms 1 single 0.01141233 0.00223507 0.01199016
Created 1 atoms
create_atoms 1 single 0.00305537 0.00077575 0.01885870
Created 1 atoms
create_atoms 1 single 0.01514383 0.00893280 0.01509899
Created 1 atoms
create_atoms 1 single 0.03150615 -.00251677 0.01240000
Created 1 atoms
create_atoms 1 single 0.01577373 0.00526305 0.01222423
Created 1 atoms
create_atoms 1 single 0.03798712 0.00214185 0.00189584
Created 1 atoms
create_atoms 1 single 0.01729339 0.01290822 0.00457732
Created 1 atoms
create_atoms 1 single 0.03108653 0.01059151 0.01498364
Created 1 atoms
create_atoms 1 single 0.03131365 0.00677242 0.00135138
Created 1 atoms
create_atoms 1 single 0.00623276 0.00498056 0.01082813
Created 1 atoms
create_atoms 1 single 0.01388972 0.00345176 0.00460417
Created 1 atoms
create_atoms 1 single 0.01295435 0.00301100 0.01487747
Created 1 atoms
create_atoms 1 single 0.00288774 0.00747847 0.00880393
Created 1 atoms
create_atoms 1 single 0.03402506 0.01241344 0.01433901
Created 1 atoms
create_atoms 1 single 0.03851147 0.00248336 0.00954050
Created 1 atoms
create_atoms 1 single 0.03185254 0.01242332 0.00249830
Created 1 atoms
create_atoms 1 single 0.00649170 0.01251690 0.00553976
Created 1 atoms
create_atoms 1 single 0.03546790 0.00285767 0.01913106
Created 1 atoms
create_atoms 1 single 0.02381147 0.01018406 0.01941513
Created 1 atoms
create_atoms 1 single 0.02570232 -.00135165 0.00507473
Created 1 atoms
create_atoms 1 single 0.02294015 0.00472043 0.00475165
Created 1 atoms
create_atoms 1 single 0.01525445 0.00691858 0.00476116
Created 1 atoms
create_atoms 1 single 0.01668255 0.00171216 0.00076165
Created 1 atoms
create_atoms 1 single 0.01213726 0.00474290 0.01213077
Created 1 atoms
create_atoms 1 single 0.01802990 0.00701001 0.00879297
Created 1 atoms
create_atoms 1 single 0.00324565 0.00532463 0.00198151
Created 1 atoms
create_atoms 1 single 0.03464455 0.00539987 0.00247995
Created 1 atoms
create_atoms 1 single 0.00966940 0.00579422 0.00707729
Created 1 atoms
create_atoms 1 single 0.01043679 0.00028646 0.00095657
Created 1 atoms
create_atoms 1 single 0.00768417 0.00082102 0.01099256
Created 1 atoms
create_atoms 1 single 0.03267343 0.00547662 0.00946150
Created 1 atoms
create_atoms 1 single 0.00876931 -.00276730 0.00795473
Created 1 atoms
create_atoms 1 single 0.00110085 0.00079736 0.01430359
Created 1 atoms
create_atoms 1 single 0.02874087 0.00455694 0.00124916
Created 1 atoms
create_atoms 1 single 0.03346096 -.00107187 0.00584255
Created 1 atoms
create_atoms 1 single 0.03937091 0.00660710 0.01566835
Created 1 atoms
create_atoms 1 single 0.02804172 0.01333789 0.00235780
Created 1 atoms
create_atoms 1 single 0.00419968 0.00536076 0.00602081
Created 1 atoms
create_atoms 1 single 0.02126266 0.00192599 0.00740652
Created 1 atoms
create_atoms 1 single 0.02229156 0.01203416 0.01238399
Created 1 atoms
create_atoms 1 single 0.03936127 0.01242517 0.01004172
Created 1 atoms
create_atoms 1 single 0.03167004 0.01070408 0.00518509
Created 1 atoms
create_atoms 1 single 0.03637513 -.00045282 0.00872437
Created 1 atoms
create_atoms 1 single 0.02132002 0.00653037 0.00735202
Created 1 atoms
create_atoms 1 single 0.02605030 -.00300089 0.00634390
Created 1 atoms
create_atoms 1 single 0.01626005 0.01014080 0.01820875
Created 1 atoms
create_atoms 1 single 0.02753102 0.00539099 0.00712622
Created 1 atoms
create_atoms 1 single 0.00941756 -.00049151 0.01197397
Created 1 atoms
create_atoms 1 single 0.03480297 0.00946721 0.01114600
Created 1 atoms
create_atoms 1 single 0.01249600 -.00339832 0.00389428
Created 1 atoms
create_atoms 1 single 0.03570660 0.00385248 0.00713957
Created 1 atoms
create_atoms 1 single 0.03512182 0.00362781 0.00924217
Created 1 atoms
create_atoms 1 single 0.02770120 0.00349956 0.00460928
Created 1 atoms
create_atoms 1 single 0.01628329 -.00225217 0.01326217
Created 1 atoms
create_atoms 1 single 0.00489535 0.00595485 0.00456497
Created 1 atoms
create_atoms 1 single 0.00576577 0.01226164 0.01172452
Created 1 atoms
create_atoms 1 single 0.02856581 -.00332525 0.00376970
Created 1 atoms
create_atoms 1 single 0.01933370 -.00235256 0.01266446
Created 1 atoms
create_atoms 1 single 0.03271585 0.01119975 0.00777507
Created 1 atoms
create_atoms 1 single 0.01293800 0.00938558 0.01861345
Created 1 atoms
create_atoms 1 single 0.01176360 0.00976855 0.00697684
Created 1 atoms
create_atoms 1 single 0.01086729 0.00889131 0.00300953
Created 1 atoms
create_atoms 1 single 0.03460896 0.00710267 0.01528299
Created 1 atoms
create_atoms 1 single 0.02840928 -.00060288 0.00886236
Created 1 atoms
create_atoms 1 single 0.03648907 0.00637684 0.01170565
Created 1 atoms
create_atoms 1 single 0.03753002 0.00822922 0.00657121
Created 1 atoms
create_atoms 1 single 0.02466547 0.00838437 0.00425205
Created 1 atoms
create_atoms 1 single 0.00389679 -.00006732 0.00077779
Created 1 atoms
create_atoms 1 single 0.03814230 0.00562720 0.01763271
Created 1 atoms
create_atoms 1 single 0.01477036 0.00928063 0.00074700
Created 1 atoms
create_atoms 1 single 0.01093283 -.00021757 0.01865468
Created 1 atoms
create_atoms 1 single 0.02398541 0.00583567 0.00069728
Created 1 atoms
create_atoms 1 single 0.03264401 0.00955013 0.00408717
Created 1 atoms
create_atoms 1 single 0.00983707 0.00022488 0.00516980
Created 1 atoms
create_atoms 1 single 0.03798879 0.00100146 0.01927831
Created 1 atoms
create_atoms 1 single 0.01273345 -.00343708 0.01105317
Created 1 atoms
create_atoms 1 single 0.00339756 0.01277458 0.00183945
Created 1 atoms
create_atoms 1 single 0.02053486 0.00378438 0.00196382
Created 1 atoms
create_atoms 1 single 0.00864373 0.00505398 0.01196073
Created 1 atoms
create_atoms 1 single 0.02393871 0.00983099 0.01099065
Created 1 atoms
create_atoms 1 single 0.00423801 0.00566589 0.01872233
Created 1 atoms
create_atoms 1 single 0.00675207 0.00758124 0.01132798
Created 1 atoms
create_atoms 1 single 0.01633564 0.00935557 0.01281258
Created 1 atoms
create_atoms 1 single 0.02274526 0.00531871 0.00782021
Created 1 atoms
create_atoms 1 single 0.00577187 0.00919923 0.00761521
Created 1 atoms
create_atoms 1 single 0.01305865 0.00002285 0.00838961
Created 1 atoms
create_atoms 1 single 0.02693602 0.00620138 0.00215237
Created 1 atoms
create_atoms 1 single 0.00256172 0.00473045 0.01671118
Created 1 atoms
create_atoms 1 single 0.01198372 0.00523521 0.00379206
Created 1 atoms
create_atoms 1 single 0.02480644 0.00648311 0.00936430
Created 1 atoms
create_atoms 1 single 0.03295106 0.00863755 0.01005981
Created 1 atoms
create_atoms 1 single 0.01614222 0.01052712 0.01649981
Created 1 atoms
create_atoms 1 single 0.03790562 0.00256962 0.01891293
Created 1 atoms
create_atoms 1 single 0.01295585 0.00688089 0.00472563
Created 1 atoms
create_atoms 1 single 0.01094634 0.00713692 0.01591176
Created 1 atoms
create_atoms 1 single 0.02456228 0.01032382 0.00598293
Created 1 atoms
create_atoms 1 single 0.01538636 0.00035406 0.01327544
Created 1 atoms
create_atoms 1 single 0.01949942 0.01002644 0.01522832
Created 1 atoms
create_atoms 1 single 0.02568890 0.00854316 0.00704132
Created 1 atoms
create_atoms 1 single 0.00320070 -.00071497 0.00120029
Created 1 atoms
create_atoms 1 single 0.02084093 0.00618053 0.00479570
Created 1 atoms
create_atoms 1 single 0.01836752 0.00531018 0.00479770
Created 1 atoms
create_atoms 1 single 0.03819184 0.00720431 0.01239240
Created 1 atoms
create_atoms 1 single 0.01375834 0.00011544 0.00276534
Created 1 atoms
create_atoms 1 single 0.02714301 -.00120055 0.00913085
Created 1 atoms
create_atoms 1 single 0.03926633 0.00456498 0.01757770
Created 1 atoms
create_atoms 1 single 0.01707137 0.00380209 0.00896258
Created 1 atoms
create_atoms 1 single 0.01112515 -.00254717 0.00965364
Created 1 atoms
create_atoms 1 single 0.00145425 0.00980651 0.01562565
Created 1 atoms
create_atoms 1 single 0.03189321 0.00389361 0.00989556
Created 1 atoms
create_atoms 1 single 0.02499970 0.01216709 0.00878467
Created 1 atoms
create_atoms 1 single 0.02887219 0.01280556 0.01797797
Created 1 atoms
create_atoms 1 single 0.03477047 -.00206325 0.00132207
Created 1 atoms
create_atoms 1 single 0.01848990 -.00026085 0.00517190
Created 1 atoms
create_atoms 1 single 0.03222215 0.00223183 0.00306825
Created 1 atoms
create_atoms 1 single 0.01355256 -.00131376 0.01206879
Created 1 atoms
create_atoms 1 single 0.01598043 0.00160593 0.01298426
Created 1 atoms
create_atoms 1 single 0.01703945 -.00171206 0.00834545
Created 1 atoms
create_atoms 1 single 0.00144602 0.00575198 0.00060920
Created 1 atoms
create_atoms 1 single 0.01237094 0.00421675 0.01908794
Created 1 atoms
create_atoms 1 single 0.02261817 0.00646229 0.01939728
Created 1 atoms
create_atoms 1 single 0.00288248 0.00666900 0.01834133
Created 1 atoms
create_atoms 1 single 0.02270575 0.00080893 0.01871132
Created 1 atoms
create_atoms 1 single 0.03940529 0.00331584 0.01537533
Created 1 atoms
create_atoms 1 single 0.00400096 0.00892765 0.00829927
Created 1 atoms
create_atoms 1 single 0.02271690 -.00182702 0.00609758
Created 1 atoms
create_atoms 1 single 0.01312713 0.01274586 0.01311335
Created 1 atoms
create_atoms 1 single 0.00771436 -.00234409 0.01247555
Created 1 atoms
create_atoms 1 single 0.03385376 0.00537741 0.01414370
Created 1 atoms
create_atoms 1 single 0.02027142 0.00404272 0.00835675
Created 1 atoms
create_atoms 1 single 0.00580185 0.00823609 0.01533035
Created 1 atoms
create_atoms 1 single 0.03438130 0.00706130 0.00931293
Created 1 atoms
create_atoms 1 single 0.02701513 0.00853296 0.01252638
Created 1 atoms
create_atoms 1 single 0.02908452 -.00128485 0.01380537
Created 1 atoms
create_atoms 1 single 0.02354947 0.00243419 0.01269507
Created 1 atoms
create_atoms 1 single 0.00511756 0.00768399 0.01284851
Created 1 atoms
create_atoms 1 single 0.01242279 0.00339724 0.01058862
Created 1 atoms
create_atoms 1 single 0.03347164 -.00156757 0.01596558
Created 1 atoms
create_atoms 1 single 0.00608580 0.00107634 0.01479017
Created 1 atoms
create_atoms 1 single 0.01750332 -.00237777 0.00501769
Created 1 atoms
create_atoms 1 single 0.00235036 0.00825391 0.00810343
Created 1 atoms
create_atoms 1 single 0.02217958 0.00050137 0.00239165
Created 1 atoms
create_atoms 1 single 0.02435827 0.00304226 0.00843500
Created 1 atoms
create_atoms 1 single 0.01162061 0.00393261 0.00808656
Created 1 atoms
create_atoms 1 single 0.02665002 0.00034253 0.00874542
Created 1 atoms
create_atoms 1 single 0.03940746 0.00223861 0.01292261
Created 1 atoms
create_atoms 1 single 0.02631129 0.01301390 0.01243937
Created 1 atoms
create_atoms 1 single 0.02573195 -.00237087 0.01326928
Created 1 atoms
create_atoms 1 single 0.02866192 0.00745111 0.01264399
Created 1 atoms
create_atoms 1 single 0.02328214 -.00109254 0.00883307
Created 1 atoms
create_atoms 1 single 0.00204234 0.00044731 0.00505000
Created 1 atoms
create_atoms 1 single 0.00807351 0.00920726 0.01473980
Created 1 atoms
create_atoms 1 single 0.03864485 -.00244895 0.01726058
Created 1 atoms
create_atoms 1 single 0.01844518 0.00087818 0.00502011
Created 1 atoms
create_atoms 1 single 0.02865323 0.00792780 0.01478067
Created 1 atoms
create_atoms 1 single 0.02734891 0.01075162 0.01094704
Created 1 atoms
create_atoms 1 single 0.01694166 0.00437566 0.01556898
Created 1 atoms
create_atoms 1 single 0.01484851 0.00420979 0.00282659
Created 1 atoms
create_atoms 1 single 0.01514968 0.00894393 0.00716596
Created 1 atoms
create_atoms 1 single 0.02133571 -.00243214 0.00125180
Created 1 atoms
create_atoms 1 single 0.00370933 0.00924079 0.01257180
Created 1 atoms
create_atoms 1 single 0.03702189 0.01266310 0.01761049
Created 1 atoms
create_atoms 1 single 0.00219675 0.00059113 0.00911176
Created 1 atoms
create_atoms 1 single 0.00756416 0.00392946 0.00736421
Created 1 atoms
create_atoms 1 single 0.03673054 0.01252853 0.01527391
Created 1 atoms
create_atoms 1 single 0.03757318 0.00939239 0.01053193
Created 1 atoms
create_atoms 1 single 0.02742826 0.00985513 0.00693997
Created 1 atoms
create_atoms 1 single 0.02281239 0.00894661 0.01144904
Created 1 atoms
create_atoms 1 single 0.02727306 0.00732460 0.00571764
Created 1 atoms
create_atoms 1 single 0.02208963 0.00028408 0.00486803
Created 1 atoms
create_atoms 1 single 0.03243328 0.00664891 0.01119661
Created 1 atoms
create_atoms 1 single 0.00166790 0.01239011 0.01842275
Created 1 atoms
create_atoms 1 single 0.01843177 0.00226276 0.00314049
Created 1 atoms
create_atoms 1 single 0.00715970 0.00121359 0.01322897
Created 1 atoms
create_atoms 1 single 0.02370792 0.00214930 0.00502520
Created 1 atoms
create_atoms 1 single 0.01168072 0.00060452 0.01561527
Created 1 atoms
create_atoms 1 single 0.02631591 0.00132504 0.01044233
Created 1 atoms
create_atoms 1 single 0.01093744 -.00135647 0.01594373
Created 1 atoms
create_atoms 1 single 0.00541540 0.00585265 0.01897090
Created 1 atoms
create_atoms 1 single 0.01574714 0.00350245 0.01404508
Created 1 atoms
create_atoms 1 single 0.00907173 0.00408788 0.01767794
Created 1 atoms
create_atoms 1 single 0.01452583 0.01153428 0.00236955
Created 1 atoms
create_atoms 1 single 0.03704800 0.01269997 0.01408722
Created 1 atoms
create_atoms 1 single 0.02217088 0.00276710 0.01839517
Created 1 atoms
create_atoms 1 single 0.03016292 -.00292901 0.00099929
Created 1 atoms
create_atoms 1 single 0.00796346 0.00393411 0.00236582
Created 1 atoms
create_atoms 1 single 0.01378268 0.00099908 0.00393087
Created 1 atoms
create_atoms 1 single 0.00641118 0.00345887 0.00961408
Created 1 atoms
create_atoms 1 single 0.02741105 0.00336576 0.00599766
Created 1 atoms
create_atoms 1 single 0.01943928 0.00847710 0.01427393
Created 1 atoms
create_atoms 1 single 0.03860580 0.00014807 0.00996280
Created 1 atoms
create_atoms 1 single 0.00066958 0.00454894 0.00142265
Created 1 atoms
create_atoms 1 single 0.00055636 0.00454233 0.01815434
Created 1 atoms
create_atoms 1 single 0.02755552 0.01128173 0.00050044
Created 1 atoms
create_atoms 1 single 0.00096419 0.01275328 0.00531348
Created 1 atoms
create_atoms 1 single 0.03062484 -.00327356 0.01108806
Created 1 atoms
create_atoms 1 single 0.01747493 0.00395105 0.00109734
Created 1 atoms
create_atoms 1 single 0.02308867 0.01194571 0.00189818
Created 1 atoms
create_atoms 1 single 0.02197873 0.00895106 0.01364498
Created 1 atoms
create_atoms 1 single 0.01117130 0.01116538 0.00327937
Created 1 atoms
create_atoms 1 single 0.01065678 -.00153164 0.00226417
Created 1 atoms
create_atoms 1 single 0.00725079 0.01135442 0.01403263
Created 1 atoms
create_atoms 1 single 0.03115945 0.00705254 0.00244299
Created 1 atoms
create_atoms 1 single 0.00868412 0.01057357 0.01465547
Created 1 atoms
create_atoms 1 single 0.00940413 -.00020546 0.01398062
Created 1 atoms
create_atoms 1 single 0.02508039 -.00203153 0.00742086
Created 1 atoms
create_atoms 1 single 0.02832617 0.00171256 0.01559362
Created 1 atoms
create_atoms 1 single 0.02735961 0.00035078 0.01594980
Created 1 atoms
create_atoms 1 single 0.02779981 0.00561176 0.01819114
Created 1 atoms
create_atoms 1 single 0.00353318 0.00744643 0.01758108
Created 1 atoms
create_atoms 1 single 0.03219755 0.00403998 0.00848903
Created 1 atoms
create_atoms 1 single 0.02541976 0.00255283 0.00891238
Created 1 atoms
create_atoms 1 single 0.00311496 0.01208573 0.01311099
Created 1 atoms
create_atoms 1 single 0.03850125 -.00179987 0.00575552
Created 1 atoms
create_atoms 1 single 0.00978084 0.00302602 0.01701831
Created 1 atoms
create_atoms 1 single 0.01383416 0.00298230 0.00197265
Created 1 atoms
create_atoms 1 single 0.00785968 0.00869531 0.00256152
Created 1 atoms
create_atoms 1 single 0.00931864 0.00063758 0.01788184
Created 1 atoms
create_atoms 1 single 0.03259950 0.00242859 0.01008283
Created 1 atoms
create_atoms 1 single 0.02044125 -.00281382 0.00745887
Created 1 atoms
create_atoms 1 single 0.00501051 0.01042598 0.01148791
Created 1 atoms
create_atoms 1 single 0.03196196 0.01248376 0.00907118
Created 1 atoms
create_atoms 1 single 0.00336337 0.00142656 0.01689166
Created 1 atoms
create_atoms 1 single 0.03623191 0.00005530 0.00464990
Created 1 atoms
create_atoms 1 single 0.01558461 -.00185840 0.00575121
Created 1 atoms
create_atoms 1 single 0.01836322 0.00656825 0.01190296
Created 1 atoms
create_atoms 1 single 0.00802050 0.00520467 0.01601198
Created 1 atoms
create_atoms 1 single 0.00112970 0.00081149 0.01714309
Created 1 atoms
create_atoms 1 single 0.01852018 0.00110991 0.01947707
Created 1 atoms
create_atoms 1 single 0.02382935 -.00070560 0.01261067
Created 1 atoms
create_atoms 1 single 0.03523497 0.00464861 0.01144793
Created 1 atoms
create_atoms 1 single 0.00927799 0.01235341 0.00890154
Created 1 atoms
create_atoms 1 single 0.02069494 0.00381084 0.01211793
Created 1 atoms
create_atoms 1 single 0.01852535 0.01208716 0.01482641
Created 1 atoms
create_atoms 1 single 0.03068755 -.00214525 0.01547717
Created 1 atoms
create_atoms 1 single 0.00917367 -.00163526 0.01144112
Created 1 atoms
create_atoms 1 single 0.03852890 0.00965159 0.01492896
Created 1 atoms
create_atoms 1 single 0.00882010 0.00049677 0.00444625
Created 1 atoms
create_atoms 1 single 0.02762204 0.00211314 0.01683691
Created 1 atoms
create_atoms 1 single 0.00754302 -.00010525 0.01228538
Created 1 atoms
create_atoms 1 single 0.02239842 0.00288779 0.00094944
Created 1 atoms
create_atoms 1 single 0.00358423 0.00920900 0.00479780
Created 1 atoms
create_atoms 1 single 0.00174894 0.00495220 0.00648202
Created 1 atoms
create_atoms 1 single 0.02924875 0.00022441 0.01087958
Created 1 atoms
create_atoms 1 single 0.03040317 0.00899430 0.01371715
Created 1 atoms
create_atoms 1 single 0.02705911 0.00663426 0.01421415
Created 1 atoms
create_atoms 1 single 0.01784627 0.00473548 0.01461200
Created 1 atoms
create_atoms 1 single 0.02411074 0.00127601 0.00857413
Created 1 atoms
create_atoms 1 single 0.00431262 0.01165556 0.01369988
Created 1 atoms
create_atoms 1 single 0.00927132 -.00217894 0.00447807
Created 1 atoms
create_atoms 1 single 0.00259397 0.00494771 0.01915756
Created 1 atoms
create_atoms 1 single 0.02226683 0.00030043 0.01614033
Created 1 atoms
create_atoms 1 single 0.02844606 0.01136392 0.00326176
Created 1 atoms
create_atoms 1 single 0.01294237 0.00000198 0.01948116
Created 1 atoms
create_atoms 1 single 0.02237756 -.00221102 0.00386996
Created 1 atoms
create_atoms 1 single 0.01791385 0.01191121 0.00146534
Created 1 atoms
create_atoms 1 single 0.03802605 0.00767152 0.01012155
Created 1 atoms
create_atoms 1 single 0.01818172 0.00356544 0.00802368
Created 1 atoms
create_atoms 1 single 0.03539342 -.00217578 0.00696793
Created 1 atoms
create_atoms 1 single 0.00944684 -.00094047 0.01595911
Created 1 atoms
create_atoms 1 single 0.00554474 -.00041662 0.01134671
Created 1 atoms
create_atoms 1 single 0.01975194 0.00643530 0.01888173
Created 1 atoms
create_atoms 1 single 0.00717693 0.01250378 0.00983811
Created 1 atoms
create_atoms 1 single 0.01017198 -.00036979 0.01115537
Created 1 atoms
create_atoms 1 single 0.00266478 0.00398398 0.01809246
Created 1 atoms
create_atoms 1 single 0.01413987 -.00337555 0.00477550
Created 1 atoms
create_atoms 1 single 0.03725037 0.00458490 0.01008028
Created 1 atoms
create_atoms 1 single 0.01530909 0.00687531 0.00135324
Created 1 atoms
create_atoms 1 single 0.03883907 0.00420658 0.00221928
Created 1 atoms
create_atoms 1 single 0.03226257 -.00127480 0.01035898
Created 1 atoms
create_atoms 1 single 0.02564317 0.01303760 0.00447155
Created 1 atoms
create_atoms 1 single 0.01020468 -.00160257 0.00616427
Created 1 atoms
create_atoms 1 single 0.00652442 0.00079555 0.00710250
Created 1 atoms
create_atoms 1 single 0.02700587 0.01229709 0.00653694
Created 1 atoms
create_atoms 1 single 0.02872105 0.00240558 0.00646213
Created 1 atoms
create_atoms 1 single 0.03667165 0.00482701 0.00656979
Created 1 atoms
create_atoms 1 single 0.01900729 -.00112456 0.01837314
Created 1 atoms
create_atoms 1 single 0.01372882 0.01145853 0.00065244
Created 1 atoms
create_atoms 1 single 0.01310267 0.00320044 0.01249570
Created 1 atoms
create_atoms 1 single 0.00112725 -.00194153 0.00751651
Created 1 atoms
create_atoms 1 single 0.00224084 0.01303190 0.00366302
Created 1 atoms
create_atoms 1 single 0.02517912 0.00292187 0.01163337
Created 1 atoms
create_atoms 1 single 0.02285043 -.00011946 0.00731109
Created 1 atoms
create_atoms 1 single 0.02203106 0.01183992 0.01134854
Created 1 atoms
create_atoms 1 single 0.00550339 0.00675494 0.01593079
Created 1 atoms
create_atoms 1 single 0.00720213 0.00929727 0.01044452
Created 1 atoms
create_atoms 1 single 0.01715909 0.00098094 0.01132767
Created 1 atoms
create_atoms 1 single 0.02225441 0.00881146 0.01514709
Created 1 atoms
create_atoms 1 single 0.01111063 0.01056570 0.01460110
Created 1 atoms
create_atoms 1 single 0.00121548 0.00808782 0.00643937
Created 1 atoms
create_atoms 1 single 0.00228160 0.00590923 0.00986617
Created 1 atoms
create_atoms 1 single 0.00814677 -.00106546 0.01516031
Created 1 atoms
create_atoms 1 single 0.01473931 0.00611221 0.00374909
Created 1 atoms
create_atoms 1 single 0.01812716 -.00233704 0.01379315
Created 1 atoms
create_atoms 1 single 0.03340460 -.00222170 0.01512350
Created 1 atoms
create_atoms 1 single 0.02307186 -.00167517 0.01026601
Created 1 atoms
create_atoms 1 single 0.01608206 -.00339611 0.01182559
Created 1 atoms
create_atoms 1 single 0.01630991 0.00462734 0.00634173
Created 1 atoms
create_atoms 1 single 0.01999975 0.00412388 0.01388028
Created 1 atoms
create_atoms 1 single 0.00888155 0.00190078 0.01250608
Created 1 atoms
create_atoms 1 single 0.03522703 0.00342976 0.00571515
Created 1 atoms
create_atoms 1 single 0.01665971 0.00052710 0.01272251
Created 1 atoms
create_atoms 1 single 0.03934094 0.00744185 0.00319237
Created 1 atoms
create_atoms 1 single 0.02425014 0.00388152 0.01166464
Created 1 atoms
create_atoms 1 single 0.02864984 0.01319352 0.01690881
Created 1 atoms
create_atoms 1 single 0.02458130 0.00397663 0.01890851
Created 1 atoms
create_atoms 1 single 0.00758839 0.00649889 0.01882913
Created 1 atoms
create_atoms 1 single 0.03006703 0.00829252 0.00358242
Created 1 atoms
create_atoms 1 single 0.01285558 0.00025962 0.00576797
Created 1 atoms
create_atoms 1 single 0.00561869 0.01104884 0.01570942
Created 1 atoms
create_atoms 1 single 0.01029842 0.00206589 0.01070550
Created 1 atoms
create_atoms 1 single 0.00793983 0.00337429 0.00380014
Created 1 atoms
create_atoms 1 single 0.01978219 -.00320987 0.01939450
Created 1 atoms
create_atoms 1 single 0.03619681 0.00156885 0.01916405
Created 1 atoms
create_atoms 1 single 0.02154657 -.00018310 0.01456662
Created 1 atoms
create_atoms 1 single 0.03770691 0.00361930 0.00718440
Created 1 atoms
create_atoms 1 single 0.02285251 0.01021640 0.01491541
Created 1 atoms
create_atoms 1 single 0.01312815 0.00962924 0.00803490
Created 1 atoms
create_atoms 1 single 0.01326478 0.00709609 0.01788293
Created 1 atoms
create_atoms 1 single 0.00655577 0.00700651 0.01504349
Created 1 atoms
create_atoms 1 single 0.01972424 0.00427656 0.01573861
Created 1 atoms
create_atoms 1 single 0.00813317 0.00645134 0.00589713
Created 1 atoms
create_atoms 1 single 0.02538887 0.00651657 0.00228878
Created 1 atoms
create_atoms 1 single 0.01214077 0.00219373 0.00119039
Created 1 atoms
create_atoms 1 single 0.02232239 0.00495476 0.01633193
Created 1 atoms
create_atoms 1 single 0.02793672 0.00223897 0.00245414
Created 1 atoms
create_atoms 1 single 0.03375490 -.00093078 0.01868256
Created 1 atoms
create_atoms 1 single 0.02074447 0.00173166 0.01803134
Created 1 atoms
create_atoms 1 single 0.02426181 0.00053598 0.01768695
Created 1 atoms
create_atoms 1 single 0.03559690 0.00608818 0.01601091
Created 1 atoms
create_atoms 1 single 0.01377668 -.00296216 0.01464496
Created 1 atoms
create_atoms 1 single 0.01307180 0.00399832 0.00673730
Created 1 atoms
create_atoms 1 single 0.03768806 0.00276746 0.00859316
Created 1 atoms
create_atoms 1 single 0.03708354 0.01221824 0.01134673
Created 1 atoms
create_atoms 1 single 0.01903972 0.00687411 0.00985561
Created 1 atoms
create_atoms 1 single 0.01072011 0.01035973 0.00388256
Created 1 atoms
create_atoms 1 single 0.01015887 0.00244513 0.00421736
Created 1 atoms
create_atoms 1 single 0.01116038 0.00067943 0.00160546
Created 1 atoms
create_atoms 1 single 0.03104508 0.00919409 0.01665361
Created 1 atoms
create_atoms 1 single 0.00494867 0.00491368 0.00050334
Created 1 atoms
create_atoms 1 single 0.03931885 0.00634799 0.00685702
Created 1 atoms
create_atoms 1 single 0.02326218 0.01278719 0.00332252
Created 1 atoms
create_atoms 1 single 0.00206311 0.00152261 0.00467481
Created 1 atoms
create_atoms 1 single 0.03396413 0.00037316 0.01208187
Created 1 atoms
create_atoms 1 single 0.02566815 0.00023054 0.01111876
Created 1 atoms
create_atoms 1 single 0.01828263 0.01344106 0.00697205
Created 1 atoms
create_atoms 1 single 0.00697261 0.00745492 0.00801559
Created 1 atoms
create_atoms 1 single 0.01268696 0.01321519 0.01566733
Created 1 atoms
create_atoms 1 single 0.01084510 0.00317943 0.00214141
Created 1 atoms
create_atoms 1 single 0.00711620 0.00586896 0.00801664
Created 1 atoms
create_atoms 1 single 0.00818605 0.00966933 0.01746085
Created 1 atoms
create_atoms 1 single 0.01200196 0.00127757 0.00589308
Created 1 atoms
create_atoms 1 single 0.02859529 0.01201075 0.01234205
Created 1 atoms
create_atoms 1 single 0.02332473 0.00208129 0.00779392
Created 1 atoms
create_atoms 1 single 0.01780265 0.00892507 0.00071703
Created 1 atoms
create_atoms 1 single 0.02495109 0.00192536 0.01853616
Created 1 atoms
create_atoms 1 single 0.02764491 0.00956844 0.01907361
Created 1 atoms
create_atoms 1 single 0.01000319 0.00286709 0.00800978
Created 1 atoms
create_atoms 1 single 0.02673317 -.00015761 0.00396477
Created 1 atoms
create_atoms 1 single 0.01391930 0.00853947 0.01202374
Created 1 atoms
create_atoms 1 single 0.00938063 0.00253938 0.01080924
Created 1 atoms
create_atoms 1 single 0.02416630 0.01152331 0.01022776
Created 1 atoms
create_atoms 1 single 0.00876148 0.01310276 0.00750514
Created 1 atoms
create_atoms 1 single 0.01684898 0.00096475 0.00216905
Created 1 atoms
create_atoms 1 single 0.02661519 0.00107735 0.00630891
Created 1 atoms
create_atoms 1 single 0.00928567 -.00203950 0.00662179
Created 1 atoms
create_atoms 1 single 0.02661506 -.00307691 0.00916199
Created 1 atoms
create_atoms 1 single 0.02359214 -.00318208 0.00272815
Created 1 atoms
create_atoms 1 single 0.00652160 0.00412143 0.00374230
Created 1 atoms
create_atoms 1 single 0.01550134 0.00719077 0.01264520
Created 1 atoms
create_atoms 1 single 0.00996750 0.00988120 0.01012222
Created 1 atoms
create_atoms 1 single 0.02159451 -.00347163 0.00611082
Created 1 atoms
create_atoms 1 single 0.03402260 -.00025735 0.00246236
Created 1 atoms
create_atoms 1 single 0.00065701 0.00576389 0.01141031
Created 1 atoms
create_atoms 1 single 0.02042514 0.00825129 0.01578641
Created 1 atoms
create_atoms 1 single 0.01539155 0.01082570 0.00426126
Created 1 atoms
create_atoms 1 single 0.03395463 0.00141046 0.01498100
Created 1 atoms
create_atoms 1 single 0.02705249 0.01037706 0.01380260
Created 1 atoms
create_atoms 1 single 0.02681744 0.01266081 0.01917506
Created 1 atoms
create_atoms 1 single 0.00362041 -.00201614 0.01501524
Created 1 atoms
create_atoms 1 single 0.03105078 -.00313661 0.00699901
Created 1 atoms
create_atoms 1 single 0.01490629 0.00181724 0.01502676
Created 1 atoms
create_atoms 1 single 0.02316527 -.00153364 0.01783266
Created 1 atoms
create_atoms 1 single 0.03585268 0.00574235 0.00912156
Created 1 atoms
create_atoms 1 single 0.02349139 0.00542903 0.00417057
Created 1 atoms
create_atoms 1 single 0.02898096 0.00295034 0.01286195
Created 1 atoms
create_atoms 1 single 0.00654422 0.00385331 0.00185540
Created 1 atoms
create_atoms 1 single 0.00427684 0.01192779 0.01482354
Created 1 atoms
create_atoms 1 single 0.01649885 0.00370328 0.00407610
Created 1 atoms
create_atoms 1 single 0.03223780 0.00531059 0.01850024
Created 1 atoms
create_atoms 1 single 0.02857956 0.00971950 0.01694377
Created 1 atoms
create_atoms 1 single 0.00326675 0.01075146 0.01454030
Created 1 atoms
create_atoms 1 single 0.01918845 0.00230132 0.00654599
Created 1 atoms
create_atoms 1 single 0.00913301 0.00188091 0.00757905
Created 1 atoms
create_atoms 1 single 0.02794207 0.00202611 0.01239035
Created 1 atoms
create_atoms 1 single 0.02977289 0.00730236 0.00482818
Created 1 atoms
create_atoms 1 single 0.00252437 0.01035346 0.00688440
Created 1 atoms
create_atoms 1 single 0.01008406 0.01167507 0.01105446
Created 1 atoms
create_atoms 1 single 0.02384551 0.00611694 0.00852134
Created 1 atoms
create_atoms 1 single 0.01660944 0.01110657 0.01947154
Created 1 atoms
create_atoms 1 single 0.01392987 0.01213855 0.01817160
Created 1 atoms
create_atoms 1 single 0.01957653 0.00798236 0.00916897
Created 1 atoms
create_atoms 1 single 0.03173497 0.00011753 0.00267792
Created 1 atoms
create_atoms 1 single 0.03590564 0.00515767 0.00319230
Created 1 atoms
create_atoms 1 single 0.03531614 0.00023794 0.01198231
Created 1 atoms
create_atoms 1 single 0.01811982 0.00649283 0.00088253
Created 1 atoms
create_atoms 1 single 0.03308173 0.00802723 0.01638523
Created 1 atoms
create_atoms 1 single 0.01660444 0.00643440 0.00932519
Created 1 atoms
create_atoms 1 single 0.03678326 0.01184968 0.00132703
Created 1 atoms
create_atoms 1 single 0.02422198 0.00252592 0.00093973
Created 1 atoms
create_atoms 1 single 0.03496641 0.01316866 0.00610569
Created 1 atoms
create_atoms 1 single 0.01587115 0.01050239 0.01063485
Created 1 atoms
create_atoms 1 single 0.00993713 0.00320465 0.00699446
Created 1 atoms
create_atoms 1 single 0.01360544 0.00397377 0.01036850
Created 1 atoms
create_atoms 1 single 0.01928704 0.00068048 0.01441531
Created 1 atoms
create_atoms 1 single 0.00569074 0.01174217 0.01806669
Created 1 atoms
create_atoms 1 single 0.01426180 0.01256515 0.00492479
Created 1 atoms
create_atoms 1 single 0.00056103 0.00018800 0.01147272
Created 1 atoms
create_atoms 1 single 0.00990588 0.01215422 0.00170505
Created 1 atoms
create_atoms 1 single 0.03047351 -.00192389 0.00180663
Created 1 atoms
create_atoms 1 single 0.03282325 0.00742669 0.00170824
Created 1 atoms
create_atoms 1 single 0.02168230 -.00277154 0.00774882
Created 1 atoms
create_atoms 1 single 0.03541964 -.00343170 0.01651153
Created 1 atoms
create_atoms 1 single 0.01087262 0.00116155 0.01782998
Created 1 atoms
create_atoms 1 single 0.02353784 0.01287174 0.01727943
Created 1 atoms
create_atoms 1 single 0.03728495 0.01047743 0.01149855
Created 1 atoms
create_atoms 1 single 0.01386099 0.00514440 0.01927682
Created 1 atoms
create_atoms 1 single 0.00689134 0.00040269 0.00515728
Created 1 atoms
create_atoms 1 single 0.00445232 0.00774913 0.01626331
Created 1 atoms
create_atoms 1 single 0.00219963 0.00038151 0.00794211
Created 1 atoms
create_atoms 1 single 0.03073245 0.00097846 0.01126617
Created 1 atoms
create_atoms 1 single 0.03490858 0.00851008 0.01698810
Created 1 atoms
create_atoms 1 single 0.02711916 0.00358846 0.00930041
Created 1 atoms
create_atoms 1 single 0.02243230 0.00912339 0.01270500
Created 1 atoms
create_atoms 1 single 0.03471564 0.01251596 0.01927734
Created 1 atoms
create_atoms 1 single 0.00894565 0.00540120 0.00860266
Created 1 atoms
create_atoms 1 single 0.01242000 0.00204059 0.01675151
Created 1 atoms
create_atoms 1 single 0.01453299 0.00828404 0.01919904
Created 1 atoms
create_atoms 1 single 0.03349299 0.00787387 0.00245946
Created 1 atoms
create_atoms 1 single 0.01888424 0.00861990 0.00055900
Created 1 atoms
create_atoms 1 single 0.01144932 0.00372789 0.00608810
Created 1 atoms
create_atoms 1 single 0.02084562 -.00242122 0.01457475
Created 1 atoms
create_atoms 1 single 0.01713012 0.01009878 0.00882100
Created 1 atoms
create_atoms 1 single 0.01748437 0.00094852 0.01450491
Created 1 atoms
create_atoms 1 single 0.01340318 0.00202588 0.00433168
Created 1 atoms
create_atoms 1 single 0.03658915 0.00914450 0.00076038
Created 1 atoms
create_atoms 1 single 0.03246807 0.00612544 0.00582653
Created 1 atoms
create_atoms 1 single 0.01141734 -.00053585 0.01452182
Created 1 atoms
create_atoms 1 single 0.02818689 0.00587691 0.00161834
Created 1 atoms
create_atoms 1 single 0.01248965 0.00601308 0.01201997
Created 1 atoms
create_atoms 1 single 0.02668174 -.00272851 0.01865617
Created 1 atoms
create_atoms 1 single 0.03491957 0.01148960 0.01449651
Created 1 atoms
create_atoms 1 single 0.01037417 0.00950126 0.00638256
Created 1 atoms
create_atoms 1 single 0.01754562 0.00711608 0.00565979
Created 1 atoms
create_atoms 1 single 0.00621775 0.00369942 0.01287410
Created 1 atoms
create_atoms 1 single 0.02851352 0.00857551 0.00249213
Created 1 atoms
create_atoms 1 single 0.01883119 0.00376813 0.00976692
Created 1 atoms
create_atoms 1 single 0.02043024 0.00761465 0.00057391
Created 1 atoms
create_atoms 1 single 0.01384329 -.00103781 0.01092432
Created 1 atoms
create_atoms 1 single 0.01018856 0.00461727 0.01769350
Created 1 atoms
create_atoms 1 single 0.02639362 0.00720053 0.01782727
Created 1 atoms
create_atoms 1 single 0.02158948 0.01344673 0.01554765
Created 1 atoms
create_atoms 1 single 0.02589235 0.00531039 0.01003891
Created 1 atoms
create_atoms 1 single 0.01259714 0.00804561 0.01206459
Created 1 atoms
create_atoms 1 single 0.00605870 0.00112602 0.01693775
Created 1 atoms
create_atoms 1 single 0.01768063 -.00045284 0.01129882
Created 1 atoms
create_atoms 1 single 0.02511413 0.01118472 0.00251015
Created 1 atoms
create_atoms 1 single 0.00509828 -.00117960 0.00646662
Created 1 atoms
create_atoms 1 single 0.01738838 -.00283813 0.00155093
Created 1 atoms
create_atoms 1 single 0.03364904 0.00627482 0.00993517
Created 1 atoms
create_atoms 1 single 0.00059966 -.00238879 0.01423475
Created 1 atoms
create_atoms 1 single 0.00638225 0.00546376 0.00385341
Created 1 atoms
create_atoms 1 single 0.00363045 0.00062463 0.00825104
Created 1 atoms
create_atoms 1 single 0.03007838 0.00414346 0.00435849
Created 1 atoms
create_atoms 1 single 0.03873414 0.00676391 0.01420403
Created 1 atoms
create_atoms 1 single 0.02848794 0.00645004 0.00426476
Created 1 atoms
create_atoms 1 single 0.03599882 -.00129096 0.01691534
Created 1 atoms
create_atoms 1 single 0.01545188 0.00113310 0.01895657
Created 1 atoms
create_atoms 1 single 0.03529620 0.01303575 0.00481976
Created 1 atoms
create_atoms 1 single 0.00340987 0.00015347 0.01639188
Created 1 atoms
create_atoms 1 single 0.02284098 0.00102199 0.00158312
Created 1 atoms
create_atoms 1 single 0.03189439 0.00202296 0.01686584
Created 1 atoms
create_atoms 1 single 0.01232746 0.01323123 0.01413942
Created 1 atoms
create_atoms 1 single 0.02518516 0.01211258 0.01715125
Created 1 atoms
create_atoms 1 single 0.01919959 -.00329414 0.00925210
Created 1 atoms
create_atoms 1 single 0.00885025 0.00795680 0.00164442
Created 1 atoms
create_atoms 1 single 0.01544819 0.00487864 0.01903450
Created 1 atoms
create_atoms 1 single 0.00880852 0.01191864 0.01453447
Created 1 atoms
create_atoms 1 single 0.03390498 0.00598511 0.01178742
Created 1 atoms
create_atoms 1 single 0.01376315 0.01028003 0.00377224
Created 1 atoms
create_atoms 1 single 0.02465808 0.01282506 0.01311153
Created 1 atoms
create_atoms 1 single 0.00459762 0.00588469 0.00087972
Created 1 atoms
create_atoms 1 single 0.01133641 0.01232503 0.01493824
Created 1 atoms
create_atoms 1 single 0.03742546 0.00098180 0.00068963
Created 1 atoms
create_atoms 1 single 0.01638143 0.00130979 0.01561416
Created 1 atoms
create_atoms 1 single 0.02000076 0.00540760 0.01773791
Created 1 atoms
create_atoms 1 single 0.02051612 0.00719307 0.01199061
Created 1 atoms
create_atoms 1 single 0.00789949 0.00862427 0.00873869
Created 1 atoms
create_atoms 1 single 0.02694224 0.00650454 0.01027700
Created 1 atoms
create_atoms 1 single 0.00528107 0.00635729 0.01209517
Created 1 atoms
create_atoms 1 single 0.01882632 0.00288486 0.01189439
Created 1 atoms
create_atoms 1 single 0.03223812 0.00167858 0.01539034
Created 1 atoms
create_atoms 1 single 0.01590715 0.00317605 0.01555995
Created 1 atoms
create_atoms 1 single 0.01958144 0.01273596 0.00050368
Created 1 atoms
create_atoms 1 single 0.03287648 0.01070360 0.01537921
Created 1 atoms
create_atoms 1 single 0.01922225 0.00769990 0.01550795
Created 1 atoms
create_atoms 1 single 0.00731369 0.00202765 0.01923929
Created 1 atoms
create_atoms 1 single 0.03101952 0.00356047 0.01588329
Created 1 atoms
create_atoms 1 single 0.00728524 -.00140848 0.00815589
Created 1 atoms
create_atoms 1 single 0.03911665 0.00238874 0.01769883
Created 1 atoms
create_atoms 1 single 0.03450482 0.01155763 0.01096157
Created 1 atoms
create_atoms 1 single 0.02441551 -.00019333 0.01684404
Created 1 atoms
create_atoms 1 single 0.00490588 0.00378582 0.01712752
Created 1 atoms
create_atoms 1 single 0.02602293 0.01113009 0.01476583
Created 1 atoms
create_atoms 1 single 0.00457971 0.00053596 0.01224835
Created 1 atoms
create_atoms 1 single 0.03344753 0.00217995 0.00345777
Created 1 atoms
create_atoms 1 single 0.01606841 -.00312484 0.00840535
Created 1 atoms
create_atoms 1 single 0.02643230 0.00788830 0.00630121
Created 1 atoms
create_atoms 1 single 0.03808060 0.00439823 0.01208138
Created 1 atoms
create_atoms 1 single 0.00182293 0.01133139 0.01827951
Created 1 atoms
create_atoms 1 single 0.02986499 0.00644359 0.00281795
Created 1 atoms
create_atoms 1 single 0.00273927 0.01265679 0.01650856
Created 1 atoms
create_atoms 1 single 0.01098953 0.00833784 0.01261957
Created 1 atoms
create_atoms 1 single 0.03277487 0.00258801 0.01683204
Created 1 atoms
create_atoms 1 single 0.01539949 0.01230176 0.01805468
Created 1 atoms
create_atoms 1 single 0.01574188 0.01310004 0.00721395
Created 1 atoms
create_atoms 1 single 0.02307683 0.00437507 0.01195065
Created 1 atoms
create_atoms 1 single 0.00518027 0.00342195 0.01949418
Created 1 atoms
create_atoms 1 single 0.02632335 0.00166241 0.01682993
Created 1 atoms
create_atoms 1 single 0.03603932 0.01040151 0.01459208
Created 1 atoms
create_atoms 1 single 0.02567297 0.00857279 0.01305743
Created 1 atoms
create_atoms 1 single 0.00054812 0.00823241 0.00444969
Created 1 atoms
create_atoms 1 single 0.03325547 0.00639448 0.00519869
Created 1 atoms
create_atoms 1 single 0.02890080 0.00879745 0.00693525
Created 1 atoms
create_atoms 1 single 0.01167279 0.00541902 0.01619494
Created 1 atoms
create_atoms 1 single 0.01115119 0.00977907 0.01062488
Created 1 atoms
create_atoms 1 single 0.03275966 -.00334081 0.00779640
Created 1 atoms
create_atoms 1 single 0.01025940 0.01303589 0.01718386
Created 1 atoms
create_atoms 1 single 0.02560549 0.00673514 0.00360462
Created 1 atoms
create_atoms 1 single 0.03064225 0.00141148 0.00851227
Created 1 atoms
create_atoms 1 single 0.03337769 0.01061226 0.01034453
Created 1 atoms
create_atoms 1 single 0.02487978 -.00146575 0.00245757
Created 1 atoms
create_atoms 1 single 0.03625441 0.00305997 0.00790219
Created 1 atoms
create_atoms 1 single 0.03379928 0.00732131 0.00092597
Created 1 atoms
create_atoms 1 single 0.01669595 0.00794664 0.00377071
Created 1 atoms
create_atoms 1 single 0.00371340 0.00133178 0.00074726
Created 1 atoms
create_atoms 1 single 0.00821665 0.01117248 0.00829989
Created 1 atoms
create_atoms 1 single 0.01087427 0.00043739 0.01264322
Created 1 atoms
create_atoms 1 single 0.02588913 0.01189590 0.01646964
Created 1 atoms
create_atoms 1 single 0.03498054 0.00453536 0.00989192
Created 1 atoms
create_atoms 1 single 0.03927799 0.00590898 0.01344424
Created 1 atoms
create_atoms 1 single 0.01896779 0.00848213 0.00443836
Created 1 atoms
create_atoms 1 single 0.03360560 0.01231152 0.01636125
Created 1 atoms
create_atoms 1 single 0.03361711 0.00916497 0.00240939
Created 1 atoms
create_atoms 1 single 0.01656918 0.00764674 0.01002906
Created 1 atoms
create_atoms 1 single 0.00137136 0.00971374 0.00678705
Created 1 atoms
create_atoms 1 single 0.02620687 0.00151764 0.01427780
Created 1 atoms
create_atoms 1 single 0.00988251 0.00970478 0.01327543
Created 1 atoms
create_atoms 1 single 0.03845325 0.00201960 0.01395533
Created 1 atoms
create_atoms 1 single 0.02393703 0.00027739 0.00140751
Created 1 atoms
create_atoms 1 single 0.02054407 0.00808483 0.01254793
Created 1 atoms
create_atoms 1 single 0.02132230 0.00746542 0.00541772
Created 1 atoms
create_atoms 1 single 0.01117256 0.00355892 0.01824373
Created 1 atoms
create_atoms 1 single 0.03009986 0.01233926 0.00511545
Created 1 atoms
create_atoms 1 single 0.01077744 0.00394741 0.00535648
Created 1 atoms
create_atoms 1 single 0.02132283 -.00308617 0.01676096
Created 1 atoms
create_atoms 1 single 0.00509479 0.00251762 0.01269772
Created 1 atoms
create_atoms 1 single 0.02832190 0.01210563 0.00233953
Created 1 atoms
create_atoms 1 single 0.03393843 -.00313894 0.01763155
Created 1 atoms
create_atoms 1 single 0.02041991 0.00071363 0.00528521
Created 1 atoms
create_atoms 1 single 0.01894557 0.00951167 0.01616016
Created 1 atoms
create_atoms 1 single 0.02997918 0.00531641 0.01836812
Created 1 atoms
create_atoms 1 single 0.03079764 0.00956331 0.00479464
Created 1 atoms
create_atoms 1 single 0.03131059 -.00139591 0.01195802
Created 1 atoms
create_atoms 1 single 0.00927997 0.00985408 0.00328655
Created 1 atoms
create_atoms 1 single 0.03168818 -.00275584 0.01668144
Created 1 atoms
create_atoms 1 single 0.03590470 0.00374293 0.01199512
Created 1 atoms
create_atoms 1 single 0.01462090 0.00692623 0.00793574
Created 1 atoms
create_atoms 1 single 0.02242570 0.00072634 0.01324025
Created 1 atoms
create_atoms 1 single 0.01416665 0.00083079 0.01744613
Created 1 atoms
create_atoms 1 single 0.01485505 0.01067231 0.01593614
Created 1 atoms
create_atoms 1 single 0.01352283 0.00856062 0.00098087
Created 1 atoms
create_atoms 1 single 0.00803122 0.00141781 0.01721567
Created 1 atoms
create_atoms 1 single 0.03351796 0.00093351 0.00868530
Created 1 atoms
create_atoms 1 single 0.00127765 -.00119603 0.01459512
Created 1 atoms
create_atoms 1 single 0.00653645 -.00264865 0.00176241
Created 1 atoms
create_atoms 1 single 0.01579223 0.00577957 0.01829650
Created 1 atoms
create_atoms 1 single 0.02355412 0.00881380 0.00241016
Created 1 atoms
create_atoms 1 single 0.00336195 0.00764040 0.00138147
Created 1 atoms
create_atoms 1 single 0.00451531 0.00180976 0.00497371
Created 1 atoms
create_atoms 1 single 0.02178816 0.00270592 0.00577107
Created 1 atoms
create_atoms 1 single 0.00183459 0.00715843 0.01368754
Created 1 atoms
create_atoms 1 single 0.02054172 0.00953585 0.01313360
Created 1 atoms
create_atoms 1 single 0.02441104 0.00368802 0.00929172
Created 1 atoms
create_atoms 1 single 0.03724816 0.00234607 0.01797485
Created 1 atoms
create_atoms 1 single 0.01473418 0.01109489 0.00755117
Created 1 atoms
create_atoms 1 single 0.02674316 -.00160398 0.01254323
Created 1 atoms
create_atoms 1 single 0.03745513 0.00007984 0.01768663
Created 1 atoms
create_atoms 1 single 0.00409475 -.00009284 0.01002995
Created 1 atoms
create_atoms 1 single 0.03546822 0.01318139 0.00734871
Created 1 atoms
create_atoms 1 single 0.00472913 0.00185088 0.01182610
Created 1 atoms
create_atoms 1 single 0.00954657 0.00854801 0.01642888
Created 1 atoms
create_atoms 1 single 0.01319152 0.00656932 0.00762865
Created 1 atoms
create_atoms 1 single 0.00748071 0.00462258 0.00461615
Created 1 atoms
create_atoms 1 single 0.02075443 0.00327534 0.00102766
Created 1 atoms
create_atoms 1 single 0.00242823 0.00855561 0.01689315
Created 1 atoms
create_atoms 1 single 0.00155938 -.00163399 0.01817872
Created 1 atoms
create_atoms 1 single 0.02510519 0.00374866 0.01431262
Created 1 atoms
create_atoms 1 single 0.03894313 0.00603808 0.01238727
Created 1 atoms
create_atoms 1 single 0.02478262 0.00440983 0.00810674
Created 1 atoms
create_atoms 1 single 0.02735369 0.00072064 0.00371265
Created 1 atoms
create_atoms 1 single 0.03378628 0.00712542 0.01623080
Created 1 atoms
create_atoms 1 single 0.01090920 0.00680274 0.00062329
Created 1 atoms
create_atoms 1 single 0.01240426 0.00820353 0.01399658
Created 1 atoms
create_atoms 1 single 0.01853149 -.00037952 0.00134423
Created 1 atoms
create_atoms 1 single 0.03335495 0.00117773 0.00458692
Created 1 atoms
create_atoms 1 single 0.03149888 0.00800013 0.01670528
Created 1 atoms
create_atoms 1 single 0.01754953 0.01125593 0.01003291
Created 1 atoms
create_atoms 1 single 0.00524885 0.00289764 0.00361335
Created 1 atoms
create_atoms 1 single 0.02630904 0.01138471 0.01207339
Created 1 atoms
create_atoms 1 single 0.03721144 0.01284338 0.00532175
Created 1 atoms
create_atoms 1 single 0.01400380 0.00987196 0.00616396
Created 1 atoms
create_atoms 1 single 0.03666862 0.00412541 0.01780164
Created 1 atoms
create_atoms 1 single 0.00641100 -.00046122 0.01034734
Created 1 atoms
create_atoms 1 single 0.00694889 0.01100303 0.00412788
Created 1 atoms
create_atoms 1 single 0.03574631 0.01346621 0.00241051
Created 1 atoms
create_atoms 1 single 0.00180576 0.00515473 0.00244236
Created 1 atoms
create_atoms 1 single 0.02327725 0.00973322 0.00483989
Created 1 atoms
create_atoms 1 single 0.01378717 0.01119576 0.00573181
Created 1 atoms
create_atoms 1 single 0.03438145 0.00715950 0.01159545
Created 1 atoms
create_atoms 1 single 0.03458460 0.00359957 0.01673031
Created 1 atoms
create_atoms 1 single 0.02115135 -.00170469 0.01719797
Created 1 atoms
create_atoms 1 single 0.03309491 -.00217242 0.01733676
Created 1 atoms
create_atoms 1 single 0.00484018 0.01202050 0.01649347
Created 1 atoms
create_atoms 1 single 0.00462932 0.00046165 0.01568199
Created 1 atoms
create_atoms 1 single 0.00387832 -.00102622 0.00737194
Created 1 atoms
create_atoms 1 single 0.03261870 0.00751494 0.00691811
Created 1 atoms
create_atoms 1 single 0.00063711 0.00261490 0.00923479
Created 1 atoms
create_atoms 1 single 0.03624100 0.00917349 0.01616223
Created 1 atoms
create_atoms 1 single 0.00263891 0.00068754 0.01753578
Created 1 atoms
create_atoms 1 single 0.01180226 0.01042996 0.00804310
Created 1 atoms
create_atoms 1 single 0.03449368 0.00785004 0.00221003
Created 1 atoms
create_atoms 1 single 0.02666011 0.01266511 0.00402148
Created 1 atoms
create_atoms 1 single 0.00350514 0.00602093 0.00099924
Created 1 atoms
create_atoms 1 single 0.01715457 0.01270987 0.01025745
Created 1 atoms
create_atoms 1 single 0.00100173 -.00040435 0.01857640
Created 1 atoms
create_atoms 1 single 0.00284286 0.00176653 0.01122249
Created 1 atoms
create_atoms 1 single 0.00233518 0.00344556 0.01567625
Created 1 atoms
create_atoms 1 single 0.03339373 0.01082220 0.01747462
Created 1 atoms
create_atoms 1 single 0.02509362 0.00254687 0.00574522
Created 1 atoms
create_atoms 1 single 0.03929540 0.00083596 0.01177873
Created 1 atoms
create_atoms 1 single 0.00603573 0.00554495 0.01451345
Created 1 atoms
create_atoms 1 single 0.02725745 -.00105040 0.00599648
Created 1 atoms
create_atoms 1 single 0.03520945 0.00085006 0.00186724
Created 1 atoms
create_atoms 1 single 0.02606218 0.00789909 0.00199763
Created 1 atoms
create_atoms 1 single 0.03631299 0.01028690 0.00382049
Created 1 atoms
create_atoms 1 single 0.03008191 0.01295359 0.01671869
Created 1 atoms
create_atoms 1 single 0.00799205 0.00594890 0.01025367
Created 1 atoms
create_atoms 1 single 0.02344920 0.00889187 0.01025362
Created 1 atoms
create_atoms 1 single 0.01322845 -.00098325 0.00919915
Created 1 atoms
create_atoms 1 single 0.02984077 0.00893200 0.00213100
Created 1 atoms
create_atoms 1 single 0.02091762 0.00408178 0.01736423
Created 1 atoms
create_atoms 1 single 0.00873107 -.00088538 0.00851752
Created 1 atoms
create_atoms 1 single 0.00119601 0.01097618 0.00690417
Created 1 atoms
create_atoms 1 single 0.00824587 0.00422072 0.01485804
Created 1 atoms
create_atoms 1 single 0.02669707 0.00174516 0.00510818
Created 1 atoms
create_atoms 1 single 0.03083110 -.00323372 0.01923522
Created 1 atoms
create_atoms 1 single 0.02496153 0.00707355 0.01619276
Created 1 atoms
create_atoms 1 single 0.02956651 0.00557149 0.00079566
Created 1 atoms
create_atoms 1 single 0.01783837 0.00410000 0.00714630
Created 1 atoms
create_atoms 1 single 0.00424243 0.01065755 0.00309563
Created 1 atoms
create_atoms 1 single 0.01533838 0.01005233 0.00268257
Created 1 atoms
create_atoms 1 single 0.01865318 0.01316117 0.01281770
Created 1 atoms
create_atoms 1 single 0.00106898 0.00852467 0.01508929
Created 1 atoms
create_atoms 1 single 0.01092700 0.00105103 0.00848106
Created 1 atoms
create_atoms 1 single 0.03693706 0.01109119 0.01752323
Created 1 atoms
create_atoms 1 single 0.02753406 0.00761874 0.01913131
Created 1 atoms
create_atoms 1 single 0.01653291 0.01203953 0.00734761
Created 1 atoms
create_atoms 1 single 0.03791308 -.00320607 0.00824674
Created 1 atoms
create_atoms 1 single 0.00323181 0.01261474 0.00346466
Created 1 atoms
create_atoms 1 single 0.00430782 0.00656138 0.01574762
Created 1 atoms
create_atoms 1 single 0.00133754 0.01014170 0.01385871
Created 1 atoms
create_atoms 1 single 0.03910807 -.00230238 0.00082794
Created 1 atoms
create_atoms 1 single 0.01082541 0.00530743 0.00250546
Created 1 atoms
create_atoms 1 single 0.00457899 -.00238966 0.01937369
Created 1 atoms
create_atoms 1 single 0.03413349 0.00382628 0.00329494
Created 1 atoms
create_atoms 1 single 0.00911196 -.00005438 0.00806269
Created 1 atoms
create_atoms 1 single 0.00214015 0.00626842 0.00554554
Created 1 atoms
create_atoms 1 single 0.03342493 -.00128569 0.00414641
Created 1 atoms
create_atoms 1 single 0.00792364 0.01227038 0.00713949
Created 1 atoms
create_atoms 1 single 0.01637451 0.00742093 0.01449826
Created 1 atoms
create_atoms 1 single 0.01864468 0.00470715 0.00687316
Created 1 atoms
create_atoms 1 single 0.02594936 0.00372674 0.00416710
Created 1 atoms
create_atoms 1 single 0.01188487 0.00454841 0.00226035
Created 1 atoms
create_atoms 1 single 0.00763180 0.01038239 0.00180692
Created 1 atoms
create_atoms 1 single 0.02656851 0.00294461 0.01804434
Created 1 atoms
create_atoms 1 single 0.00898445 0.00185965 0.00183229
Created 1 atoms
create_atoms 1 single 0.02592627 0.00493116 0.00802992
Created 1 atoms
create_atoms 1 single 0.00746233 -.00212648 0.00697164
Created 1 atoms
create_atoms 1 single 0.02735827 0.01108059 0.01875350
Created 1 atoms
create_atoms 1 single 0.02850564 0.00377527 0.01758903
Created 1 atoms
create_atoms 1 single 0.00284054 0.01297314 0.00070249
Created 1 atoms
create_atoms 1 single 0.01542305 0.00725710 0.01665225
Created 1 atoms
create_atoms 1 single 0.03079780 0.00924843 0.00110307
Created 1 atoms
create_atoms 1 single 0.00105758 0.00126810 0.01329968
Created 1 atoms
create_atoms 1 single 0.03190432 0.01166220 0.01174752
Created 1 atoms
create_atoms 1 single 0.00647969 0.01298236 0.00642581
Created 1 atoms
create_atoms 1 single 0.00486929 0.00484850 0.01064561
Created 1 atoms
create_atoms 1 single 0.01189979 0.00501703 0.00926471
Created 1 atoms
create_atoms 1 single 0.00637353 0.01325622 0.00800976
Created 1 atoms
create_atoms 1 single 0.00652187 0.00487811 0.01787025
Created 1 atoms
create_atoms 1 single 0.03543491 0.00152729 0.01529474
Created 1 atoms
create_atoms 1 single 0.00958912 0.00356896 0.00388974
Created 1 atoms
create_atoms 1 single 0.01404880 0.00689529 0.00118940
Created 1 atoms
create_atoms 1 single 0.02631428 0.00160917 0.00372316
Created 1 atoms
create_atoms 1 single 0.01278340 0.00582189 0.01008917
Created 1 atoms
create_atoms 1 single 0.01481279 0.00568613 0.01929854
Created 1 atoms
create_atoms 1 single 0.03569652 -.00311503 0.01109282
Created 1 atoms
create_atoms 1 single 0.03862173 0.00221270 0.00487837
Created 1 atoms
create_atoms 1 single 0.00208861 0.01327733 0.00488649
Created 1 atoms
create_atoms 1 single 0.03567740 -.00101531 0.01544612
Created 1 atoms
create_atoms 1 single 0.03514121 0.00003093 0.01851216
Created 1 atoms
create_atoms 1 single 0.03304093 0.00468229 0.01094733
Created 1 atoms
create_atoms 1 single 0.03110180 0.01256266 0.01199386
Created 1 atoms
create_atoms 1 single 0.03176426 0.00863157 0.00135642
Created 1 atoms
create_atoms 1 single 0.01975246 0.00760351 0.01884936
Created 1 atoms
create_atoms 1 single 0.01301790 0.01021233 0.00229923
Created 1 atoms
create_atoms 1 single 0.03240237 0.01201589 0.00679880
Created 1 atoms
create_atoms 1 single 0.00375019 -.00094881 0.01518875
Created 1 atoms
create_atoms 1 single 0.03034757 0.00397088 0.01351143
Created 1 atoms
create_atoms 1 single 0.03473169 -.00300100 0.00382821
Created 1 atoms
create_atoms 1 single 0.00868908 -.00013098 0.00179549
Created 1 atoms
create_atoms 1 single 0.02329707 0.01285231 0.00927851
Created 1 atoms
create_atoms 1 single 0.00731746 0.00910054 0.00558415
Created 1 atoms
create_atoms 1 single 0.02938142 0.00810242 0.00165690
Created 1 atoms
create_atoms 1 single 0.02030375 0.00151089 0.00177126
Created 1 atoms
create_atoms 1 single 0.00670984 -.00214192 0.00055933
Created 1 atoms
create_atoms 1 single 0.00338961 0.00288837 0.01713191
Created 1 atoms
create_atoms 1 single 0.00975809 0.00821259 0.00458359
Created 1 atoms
create_atoms 1 single 0.00769541 0.01347143 0.00052946
Created 1 atoms
create_atoms 1 single 0.02227710 0.00373620 0.00538384
Created 1 atoms
create_atoms 1 single 0.01436373 0.00274313 0.00891180
Created 1 atoms
create_atoms 1 single 0.02526196 -.00224635 0.00331072
Created 1 atoms
create_atoms 1 single 0.01605238 -.00157889 0.01103739
Created 1 atoms
create_atoms 1 single 0.02890799 0.00766421 0.00869033
Created 1 atoms
create_atoms 1 single 0.03631515 -.00016708 0.01235658
Created 1 atoms
create_atoms 1 single 0.02109386 -.00034915 0.01140046
Created 1 atoms
create_atoms 1 single 0.01053651 -.00310052 0.00544527
Created 1 atoms
create_atoms 1 single 0.00152460 0.01127932 0.01546583
Created 1 atoms
create_atoms 1 single 0.03880934 -.00151961 0.00938869
Created 1 atoms
create_atoms 1 single 0.00056411 0.00592531 0.01606142
Created 1 atoms
create_atoms 1 single 0.01815066 0.00827884 0.01408758
Created 1 atoms
create_atoms 1 single 0.01879320 -.00046922 0.01342450
Created 1 atoms
create_atoms 1 single 0.00590540 0.01097728 0.00140452
Created 1 atoms
create_atoms 1 single 0.00697334 0.00209287 0.00810985
Created 1 atoms
create_atoms 1 single 0.00075754 0.00141076 0.00797659
Created 1 atoms
create_atoms 1 single 0.00389519 -.00181523 0.00072241
Created 1 atoms
create_atoms 1 single 0.02931026 -.00053497 0.00459898
Created 1 atoms
create_atoms 1 single 0.00399880 0.00434958 0.01703960
Created 1 atoms
create_atoms 1 single 0.01295625 0.01140167 0.00960674
Created 1 atoms
create_atoms 1 single 0.02397065 0.01237019 0.01947823
Created 1 atoms
create_atoms 1 single 0.03923863 0.00792896 0.01481192
Created 1 atoms
create_atoms 1 single 0.02777898 0.00859825 0.00068372
Created 1 atoms
create_atoms 1 single 0.02604376 0.00720823 0.00552811
Created 1 atoms
create_atoms 1 single 0.03404236 0.00673146 0.01769717
Created 1 atoms
create_atoms 1 single 0.01565828 -.00291057 0.01530589
Created 1 atoms
create_atoms 1 single 0.00686898 -.00042747 0.01775419
Created 1 atoms
create_atoms 1 single 0.01717466 0.01336757 0.00765981
Created 1 atoms
create_atoms 1 single 0.02861754 0.00119405 0.00130709
Created 1 atoms
create_atoms 1 single 0.03650893 0.00151439 0.00615277
Created 1 atoms
create_atoms 1 single 0.02475571 0.01331807 0.01839714
Created 1 atoms
create_atoms 1 single 0.02571731 0.00144266 0.01593213
Created 1 atoms
create_atoms 1 single 0.02418749 0.00408167 0.00562059
Created 1 atoms
create_atoms 1 single 0.02459270 0.01164289 0.01876871
Created 1 atoms
create_atoms 1 single 0.01703219 0.01164064 0.01593081
Created 1 atoms
create_atoms 1 single 0.02142710 -.00124587 0.00210185
Created 1 atoms
create_atoms 1 single 0.01850338 0.00549628 0.00869274
Created 1 atoms
create_atoms 1 single 0.02409111 0.00226349 0.01527702
Created 1 atoms
create_atoms 1 single 0.00349249 0.00710808 0.00627265
Created 1 atoms
create_atoms 1 single 0.03907703 0.01132403 0.01531700
Created 1 atoms
create_atoms 1 single 0.03146895 0.01235487 0.00608016
Created 1 atoms
create_atoms 1 single 0.01964191 0.01036272 0.00304578
Created 1 atoms
create_atoms 1 single 0.03111917 -.00154679 0.01698484
Created 1 atoms
create_atoms 1 single 0.01463041 0.00377142 0.00952684
Created 1 atoms
create_atoms 1 single 0.01589285 0.00455361 0.00850164
Created 1 atoms
create_atoms 1 single 0.00527898 -.00032305 0.00594625
Created 1 atoms
create_atoms 1 single 0.01273205 -.00300876 0.00681727
Created 1 atoms
create_atoms 1 single 0.01931523 0.01042418 0.00995092
Created 1 atoms
create_atoms 1 single 0.03805402 0.00911145 0.00375848
Created 1 atoms
create_atoms 1 single 0.02536595 0.00623115 0.00100346
Created 1 atoms
create_atoms 1 single 0.01304195 0.00058702 0.00077791
Created 1 atoms
create_atoms 1 single 0.01080483 0.01150004 0.01609340
Created 1 atoms
create_atoms 1 single 0.03478479 -.00103741 0.01254500
Created 1 atoms
create_atoms 1 single 0.03593985 0.00234475 0.00443915
Created 1 atoms
create_atoms 1 single 0.00992745 -.00331749 0.01595430
Created 1 atoms
create_atoms 1 single 0.01545404 0.00126161 0.00774272
Created 1 atoms
create_atoms 1 single 0.03539877 0.00833601 0.01526927
Created 1 atoms
create_atoms 1 single 0.03510147 -.00313012 0.01889370
Created 1 atoms
create_atoms 1 single 0.00247860 0.00233395 0.01724492
Created 1 atoms
create_atoms 1 single 0.02498609 0.00053433 0.00496399
Created 1 atoms
create_atoms 1 single 0.02425803 -.00252270 0.01579769
Created 1 atoms
create_atoms 1 single 0.02873224 0.01163645 0.01905861
Created 1 atoms
create_atoms 1 single 0.02863188 0.01060111 0.01393159
Created 1 atoms
create_atoms 1 single 0.01549753 -.00015862 0.00256785
Created 1 atoms
create_atoms 1 single 0.02549995 0.00420684 0.00948231
Created 1 atoms
create_atoms 1 single 0.01149398 0.00749193 0.01455432
Created 1 atoms
create_atoms 1 single 0.00986510 0.00340199 0.00533377
Created 1 atoms
create_atoms 1 single 0.01142358 -.00018475 0.00424818
Created 1 atoms
create_atoms 1 single 0.02739033 0.00447715 0.00620444
Created 1 atoms
create_atoms 1 single 0.01685913 0.00332101 0.01725346
Created 1 atoms
create_atoms 1 single 0.00603791 0.00435672 0.01616311
Created 1 atoms
create_atoms 1 single 0.03572239 0.00121172 0.00907361
Created 1 atoms
create_atoms 1 single 0.03554783 -.00215484 0.01599148
Created 1 atoms
create_atoms 1 single 0.02594868 0.00983327 0.00859536
Created 1 atoms
create_atoms 1 single 0.03919083 0.00832461 0.00477086
Created 1 atoms
create_atoms 1 single 0.00382736 0.00745259 0.00842852
Created 1 atoms
create_atoms 1 single 0.02682830 0.00655488 0.01619983
Created 1 atoms
create_atoms 1 single 0.01949087 0.01308348 0.00507153
Created 1 atoms
create_atoms 1 single 0.02275432 0.00737628 0.01168141
Created 1 atoms
create_atoms 1 single 0.03007841 -.00009194 0.01943149
Created 1 atoms
create_atoms 1 single 0.01105484 0.01322857 0.01244179
Created 1 atoms
create_atoms 1 single 0.00077273 0.00362714 0.01593623
Created 1 atoms
create_atoms 1 single 0.00473231 0.00857356 0.00697031
Created 1 atoms
create_atoms 1 single 0.01773535 0.00013593 0.00362268
Created 1 atoms
create_atoms 1 single 0.03171167 0.00245450 0.01124200
Created 1 atoms
create_atoms 1 single 0.00204236 -.00293359 0.00145904
Created 1 atoms
create_atoms 1 single 0.00190146 0.00303535 0.00781545
Created 1 atoms
create_atoms 1 single 0.00712163 0.00471176 0.01700829
Created 1 atoms
create_atoms 1 single 0.02274850 -.00099069 0.01353064
Created 1 atoms
create_atoms 1 single 0.01666134 0.00456004 0.01755782
Created 1 atoms
create_atoms 1 single 0.03566164 0.00913163 0.00880245
Created 1 atoms
create_atoms 1 single 0.00190297 0.00204031 0.01304828
Created 1 atoms
create_atoms 1 single 0.01124774 -.00316601 0.01670362
Created 1 atoms
create_atoms 1 single 0.00438228 0.01209117 0.00728914
Created 1 atoms
create_atoms 1 single 0.00370221 0.00841918 0.01504101
Created 1 atoms
create_atoms 1 single 0.00656523 0.00244014 0.00209665
Created 1 atoms
create_atoms 1 single 0.02152603 0.00701717 0.01434648
Created 1 atoms
create_atoms 1 single 0.03038389 -.00336899 0.00900657
Created 1 atoms
create_atoms 1 single 0.01592549 0.01071550 0.00862305
Created 1 atoms
create_atoms 1 single 0.01016375 0.01242353 0.00756478
Created 1 atoms
create_atoms 1 single 0.02388018 0.01052387 0.01377576
Created 1 atoms
create_atoms 1 single 0.02365346 0.00278151 0.00625225
Created 1 atoms
create_atoms 1 single 0.03850320 0.00550881 0.00309603
Created 1 atoms
create_atoms 1 single 0.03590979 0.00449149 0.01645426
Created 1 atoms
create_atoms 1 single 0.03046422 0.00403212 0.00114463
Created 1 atoms
create_atoms 1 single 0.03096691 0.00539353 0.01603228
Created 1 atoms
create_atoms 1 single 0.00936550 0.00347363 0.01413136
Created 1 atoms
create_atoms 1 single 0.03005475 0.00710344 0.01646053
Created 1 atoms
create_atoms 1 single 0.02737306 0.00282551 0.01277242
Created 1 atoms
create_atoms 1 single 0.02620476 -.00072987 0.01699218
Created 1 atoms
create_atoms 1 single 0.01638550 0.00718575 0.01158958
Created 1 atoms
create_atoms 1 single 0.03509818 0.01157344 0.00360265
Created 1 atoms
create_atoms 1 single 0.01932347 0.00589025 0.00274472
Created 1 atoms
create_atoms 1 single 0.03145594 -.00097316 0.00342420
Created 1 atoms
create_atoms 1 single 0.02879379 0.00156561 0.01657877
Created 1 atoms
create_atoms 1 single 0.01966889 0.00067275 0.00697566
Created 1 atoms
create_atoms 1 single 0.01130111 0.00060194 0.00563685
Created 1 atoms
create_atoms 1 single 0.02138473 0.00105416 0.01111943
Created 1 atoms
create_atoms 1 single 0.00578908 0.01195505 0.01308895
Created 1 atoms
create_atoms 1 single 0.02545875 -.00173449 0.01519987
Created 1 atoms
create_atoms 1 single 0.00104834 0.00723964 0.01736234
Created 1 atoms
create_atoms 1 single 0.01493213 0.00281051 0.00319999
Created 1 atoms
create_atoms 1 single 0.01902158 0.00752050 0.00495631
Created 1 atoms
create_atoms 1 single 0.03778753 -.00319661 0.00602534
Created 1 atoms
create_atoms 1 single 0.00614047 0.00756077 0.01915999
Created 1 atoms
create_atoms 1 single 0.03834144 0.00120925 0.00442520
Created 1 atoms
create_atoms 1 single 0.00332416 0.00819559 0.01009527
Created 1 atoms
create_atoms 1 single 0.02189398 0.01114655 0.01546655
Created 1 atoms
create_atoms 1 single 0.02857696 0.00893069 0.01176069
Created 1 atoms
create_atoms 1 single 0.03775662 -.00026070 0.01259819
Created 1 atoms
create_atoms 1 single 0.00879953 0.01180057 0.01619240
Created 1 atoms
create_atoms 1 single 0.03253131 0.01347834 0.01748383
Created 1 atoms
create_atoms 1 single 0.01834302 0.01074691 0.01920915
Created 1 atoms
create_atoms 1 single 0.00087292 -.00200269 0.01514393
Created 1 atoms
create_atoms 1 single 0.02045924 0.01160821 0.01618322
Created 1 atoms
create_atoms 1 single 0.02086369 0.00174974 0.01340074
Created 1 atoms
create_atoms 1 single 0.01976744 -.00296890 0.01661130
Created 1 atoms
create_atoms 1 single 0.02033743 0.00979243 0.00825049
Created 1 atoms
create_atoms 1 single 0.03633983 -.00116060 0.00406325
Created 1 atoms
create_atoms 1 single 0.00086562 0.00063274 0.00301236
Created 1 atoms
create_atoms 1 single 0.02858397 0.00361355 0.00671049
Created 1 atoms
create_atoms 1 single 0.00141257 0.00489351 0.00782343
Created 1 atoms
create_atoms 1 single 0.03767661 0.00685442 0.01070441
Created 1 atoms
create_atoms 1 single 0.02741159 0.00346785 0.01575433
Created 1 atoms
create_atoms 1 single 0.01670231 -.00063807 0.01666558
Created 1 atoms
create_atoms 1 single 0.00177060 -.00230357 0.01172350
Created 1 atoms
create_atoms 1 single 0.00299069 0.01006790 0.00227560
Created 1 atoms
create_atoms 1 single 0.03943617 0.01018002 0.00196929
Created 1 atoms
create_atoms 1 single 0.01897781 0.01132525 0.01850000
Created 1 atoms
create_atoms 1 single 0.02489129 -.00101925 0.01145740
Created 1 atoms
create_atoms 1 single 0.01421747 0.00857367 0.00398052
Created 1 atoms
create_atoms 1 single 0.03472697 0.00290815 0.01059919
Created 1 atoms
create_atoms 1 single 0.01230993 -.00209346 0.00460000
Created 1 atoms
create_atoms 1 single 0.00759826 0.01063079 0.01710266
Created 1 atoms
create_atoms 1 single 0.02059873 -.00055006 0.00681508
Created 1 atoms
create_atoms 1 single 0.02691012 0.00495741 0.01297282
Created 1 atoms
create_atoms 1 single 0.03936191 0.00098366 0.00677029
Created 1 atoms
create_atoms 1 single 0.03352645 0.00412408 0.01827884
Created 1 atoms
create_atoms 1 single 0.01226893 0.00655603 0.00885277
Created 1 atoms
create_atoms 1 single 0.01672302 0.00894729 0.00585763
Created 1 atoms
create_atoms 1 single 0.00944786 0.00940226 0.01429183
Created 1 atoms
create_atoms 1 single 0.01261362 0.00043339 0.01167480
Created 1 atoms
create_atoms 1 single 0.01131933 0.00217304 0.01861908
Created 1 atoms
create_atoms 1 single 0.00233392 0.01086866 0.01264422
Created 1 atoms
create_atoms 1 single 0.00573027 0.01221974 0.01515461
Created 1 atoms
create_atoms 1 single 0.01746746 -.00105607 0.01255234
Created 1 atoms
create_atoms 1 single 0.01642074 0.00093122 0.00751505
Created 1 atoms
create_atoms 1 single 0.03919438 0.00893257 0.00172641
Created 1 atoms
create_atoms 1 single 0.03078611 0.00040105 0.01486321
Created 1 atoms
create_atoms 1 single 0.03919329 0.00976064 0.00476310
Created 1 atoms
create_atoms 1 single 0.00762880 0.00118410 0.01411998
Created 1 atoms
create_atoms 1 single 0.00782867 0.00209591 0.00549919
Created 1 atoms
create_atoms 1 single 0.00132465 0.01261699 0.00758352
Created 1 atoms
create_atoms 1 single 0.02692622 0.01217671 0.01283422
Created 1 atoms
create_atoms 1 single 0.01713363 0.00255226 0.01598656
Created 1 atoms
create_atoms 1 single 0.02736527 0.00860679 0.00418699
Created 1 atoms
create_atoms 1 single 0.03067890 0.01252019 0.01435784
Created 1 atoms
create_atoms 1 single 0.00746329 0.01248713 0.00854834
Created 1 atoms
create_atoms 1 single 0.01934712 0.01079857 0.00442727
Created 1 atoms
create_atoms 1 single 0.01922590 0.01317742 0.01057854
Created 1 atoms
create_atoms 1 single 0.03014941 -.00244233 0.00470182
Created 1 atoms
create_atoms 1 single 0.01083827 0.00851770 0.01836222
Created 1 atoms
create_atoms 1 single 0.01054984 0.00977666 0.01729406
Created 1 atoms
create_atoms 1 single 0.03167193 -.00030858 0.01703850
Created 1 atoms
create_atoms 1 single 0.03380904 0.00179489 0.01045947
Created 1 atoms
create_atoms 1 single 0.01868331 0.01078809 0.00200275
Created 1 atoms
create_atoms 1 single 0.02007813 0.01024353 0.00531509
Created 1 atoms
create_atoms 1 single 0.00268182 0.00867305 0.00517737
Created 1 atoms
create_atoms 1 single 0.02643828 -.00339414 0.00545547
Created 1 atoms
create_atoms 1 single 0.02058686 0.01137653 0.00504349
Created 1 atoms
create_atoms 1 single 0.02696498 0.00710594 0.00728757
Created 1 atoms
create_atoms 1 single 0.01504431 0.00063674 0.00107452
Created 1 atoms
create_atoms 1 single 0.00768232 0.00074700 0.01827628
Created 1 atoms
create_atoms 1 single 0.03801950 0.00074962 0.00824566
Created 1 atoms
create_atoms 1 single 0.03690309 0.01064888 0.01009954
Created 1 atoms
create_atoms 1 single 0.00741961 0.00287804 0.01802145
Created 1 atoms
create_atoms 1 single 0.03250189 0.00477593 0.01222361
Created 1 atoms
create_atoms 1 single 0.03031022 0.00932632 0.01151456
Created 1 atoms
create_atoms 1 single 0.03613310 0.00776268 0.00751287
Created 1 atoms
create_atoms 1 single 0.03260475 0.00764932 0.01325569
Created 1 atoms
create_atoms 1 single 0.01480487 0.01343757 0.00516576
Created 1 atoms
create_atoms 1 single 0.00688055 -.00119288 0.01093243
Created 1 atoms
create_atoms 1 single 0.01175249 -.00110334 0.01307816
Created 1 atoms
create_atoms 1 single 0.02095211 0.00210227 0.00580289
Created 1 atoms
create_atoms 1 single 0.03390533 -.00268119 0.00078149
Created 1 atoms
create_atoms 1 single 0.01177848 0.01263245 0.00519610
Created 1 atoms
create_atoms 1 single 0.01503404 0.00202525 0.00620548
Created 1 atoms
create_atoms 1 single 0.03776340 0.00512512 0.00931025
Created 1 atoms
create_atoms 1 single 0.02387616 0.00632407 0.00586245
Created 1 atoms
create_atoms 1 single 0.03721657 0.00748380 0.01175838
Created 1 atoms
create_atoms 1 single 0.02166774 -.00314103 0.00882538
Created 1 atoms
create_atoms 1 single 0.03947801 0.01261629 0.01226389
Created 1 atoms
create_atoms 1 single 0.03396244 0.00356788 0.00599793
Created 1 atoms
create_atoms 1 single 0.00626678 0.00070739 0.01576229
Created 1 atoms
create_atoms 1 single 0.01745724 0.00597430 0.01419083
Created 1 atoms
create_atoms 1 single 0.00260560 0.01147091 0.00060562
Created 1 atoms
create_atoms 1 single 0.02640334 0.00478957 0.00078251
Created 1 atoms
create_atoms 1 single 0.01598746 0.01245047 0.00937757
Created 1 atoms
create_atoms 1 single 0.01772581 -.00160189 0.00928141
Created 1 atoms
create_atoms 1 single 0.02158570 0.00611927 0.01589073
Created 1 atoms
create_atoms 1 single 0.00939867 0.00662956 0.00984003
Created 1 atoms
create_atoms 1 single 0.01935652 0.00607156 0.01263180
Created 1 atoms
create_atoms 1 single 0.02441610 0.00470793 0.01029736
Created 1 atoms
create_atoms 1 single 0.00839556 0.01259206 0.01047435
Created 1 atoms
create_atoms 1 single 0.02895774 0.00338928 0.01477117
Created 1 atoms
create_atoms 1 single 0.02411479 -.00261538 0.01703457
Created 1 atoms
create_atoms 1 single 0.00215910 -.00040127 0.01213480
Created 1 atoms
create_atoms 1 single 0.02729523 -.00074651 0.00126765
Created 1 atoms
create_atoms 1 single 0.03034309 0.01330551 0.00205115
Created 1 atoms
create_atoms 1 single 0.01257198 -.00226051 0.01706928
Created 1 atoms
create_atoms 1 single 0.00790172 0.00759548 0.00176600
Created 1 atoms
create_atoms 1 single 0.02164152 0.00508636 0.01266837
Created 1 atoms
create_atoms 1 single 0.00325627 0.00795122 0.00370155
Created 1 atoms
create_atoms 1 single 0.03256845 0.00943315 0.00619594
Created 1 atoms
create_atoms 1 single 0.02564677 0.00445349 0.01183575
Created 1 atoms
create_atoms 1 single 0.02524563 0.00055030 0.01520417
Created 1 atoms
create_atoms 1 single 0.02731863 0.00120021 0.01505659
Created 1 atoms
create_atoms 1 single 0.02326812 0.01302283 0.01192366
Created 1 atoms
create_atoms 1 single 0.02442213 0.00636660 0.00696723
Created 1 atoms
create_atoms 1 single 0.02845516 -.00111576 0.01649135
Created 1 atoms
create_atoms 1 single 0.00844122 -.00186160 0.00838354
Created 1 atoms
create_atoms 1 single 0.01272482 0.01008944 0.01354008
Created 1 atoms
create_atoms 1 single 0.00932525 0.01291973 0.00064872
Created 1 atoms
create_atoms 1 single 0.03159248 0.00311105 0.01467343
Created 1 atoms
create_atoms 1 single 0.00440226 -.00297243 0.00251278
Created 1 atoms
create_atoms 1 single 0.01423437 0.00159718 0.00521940
Created 1 atoms
create_atoms 1 single 0.03139343 0.00580333 0.01873878
Created 1 atoms
create_atoms 1 single 0.03217181 0.00138123 0.00599443
Created 1 atoms
create_atoms 1 single 0.02622477 0.00558363 0.01411201
Created 1 atoms
create_atoms 1 single 0.00084528 0.00898832 0.01044469
Created 1 atoms
create_atoms 1 single 0.01154680 -.00165200 0.01754662
Created 1 atoms
create_atoms 1 single 0.01695422 0.00290593 0.01386079
Created 1 atoms
create_atoms 1 single 0.00676881 0.00933474 0.00088132
Created 1 atoms
create_atoms 1 single 0.00556895 0.00534215 0.01360111
Created 1 atoms
create_atoms 1 single 0.00371081 -.00053302 0.01144401
Created 1 atoms
create_atoms 1 single 0.02597616 -.00247650 0.00422622
Created 1 atoms
create_atoms 1 single 0.01063472 0.00752552 0.00974614
Created 1 atoms
create_atoms 1 single 0.02908425 0.00955777 0.00370622
Created 1 atoms
create_atoms 1 single 0.03236825 0.00884057 0.00265482
Created 1 atoms
create_atoms 1 single 0.00571576 0.01259544 0.00379289
Created 1 atoms
create_atoms 1 single 0.01460919 0.00764927 0.00667736
Created 1 atoms
create_atoms 1 single 0.00413728 -.00259392 0.00528244
Created 1 atoms
create_atoms 1 single 0.02808814 -.00273015 0.01059125
Created 1 atoms
create_atoms 1 single 0.02567149 0.00053494 0.00590165
Created 1 atoms
create_atoms 1 single 0.03258625 -.00247391 0.00398538
Created 1 atoms
create_atoms 1 single 0.01876850 0.00351593 0.00685574
Created 1 atoms
create_atoms 1 single 0.03784252 0.00868098 0.00793206
Created 1 atoms
create_atoms 1 single 0.01984370 0.00542862 0.01114304
Created 1 atoms
create_atoms 1 single 0.01593603 0.00085145 0.00435864
Created 1 atoms
create_atoms 1 single 0.01526002 0.00239349 0.01646579
Created 1 atoms
create_atoms 1 single 0.01699463 0.00857432 0.00925368
Created 1 atoms
create_atoms 1 single 0.01398621 0.00366891 0.00560877
Created 1 atoms
create_atoms 1 single 0.01570790 -.00041423 0.00361737
Created 1 atoms
create_atoms 1 single 0.01880697 0.00206023 0.00753779
Created 1 atoms
create_atoms 1 single 0.03729609 0.01257196 0.00935203
Created 1 atoms
[...]

Total # of neighbors = 915021
Ave neighs/atom = 76.309
Neighbor list builds = 0
Dangerous builds = 0
if              "${stop_criterion}>0.1" then "jump in.sample consolidation"
jump in.sample consolidation
variable        y_boxchange equal 0
variable        box_move equal 0
run             1
WARNING: Pair gran does currently not support more than one fix rigid. This may result in under-damping. (../pair_gran.cpp:224)
WARNING: More than one fix rigid (../fix_rigid.cpp:638)
WARNING: More than one fix rigid (../fix_rigid.cpp:638)
Memory usage per processor = 14.8099 Mbytes
Step Time Dt Atoms KinEng y_size solid_fr applied_ mean_for move_spe 
 1930000       0.0965        5e-08    11991 1.7268761e-05  0.013370735   0.58737762          800    149.33242   0.05380313 
 1930001   0.09650005        5e-08    11991 0.0026859738  0.013370733   0.58737774          800    235.47643  0.035137938 
Loop time of 0.00174339 on 16 procs for 1 steps with 11991 atoms

Pair  time (%) = 0.00110861 (63.589)
Neigh time (%) = 0 (0)
Comm  time (%) = 0.000181356 (10.4025)
Outpt time (%) = 0.000100542 (5.76701)
Other time (%) = 0.000352889 (20.2415)

Nlocal:    749.438 ave 760 max 738 min
Histogram: 2 1 1 1 0 5 2 1 2 1
Nghost:    2105.69 ave 2121 max 2095 min
Histogram: 3 2 2 1 2 2 1 1 0 2
Neighs:    57361.1 ave 58240 max 56252 min
Histogram: 1 2 1 0 0 3 5 2 0 2

Total # of neighbors = 917778
Ave neighs/atom = 76.5389
Neighbor list builds = 0
Dangerous builds = 0
variable        y_boxchange equal v_y_size-${y_size}-v_move_speed*dt
variable        y_boxchange equal v_y_size-0.0133707326405228-v_move_speed*dt
variable        box_move equal -1.0*v_move_speed
run             9999
WARNING: Pair gran does currently not support more than one fix rigid. This may result in under-damping. (../pair_gran.cpp:224)
WARNING: More than one fix rigid (../fix_rigid.cpp:638)
WARNING: More than one fix rigid (../fix_rigid.cpp:638)
Memory usage per processor = 14.8099 Mbytes
Step Time Dt Atoms KinEng y_size solid_fr applied_ mean_for move_spe 
 1930001   0.09650005        5e-08    11991 0.0026859738  0.013370733   0.58737774          800    249.52006  0.032580258 
 1931000      0.09655        5e-08    11991 1.214892e-05  0.013368052   0.58749553          800    160.34026  0.051118382 
 1932000       0.0966        5e-08    11991 8.195311e-06  0.013365636   0.58760171          800    184.98434  0.045434793 
 1933000      0.09665        5e-08    11991 6.3469335e-06  0.013363503    0.5876955          800    210.85706   0.03993853 
 1934000       0.0967        5e-08    11991 5.0841039e-06  0.013361628     0.587778          800    235.14125  0.035200564 
 1935000      0.09675        5e-08    11991 4.1544118e-06   0.01335997   0.58785092          800    257.42235  0.031197209 
 1936000       0.0968        5e-08    11991 1.2771237e-05  0.013358443   0.58791813          800    294.27325  0.025262586 
 1937000      0.09685        5e-08    11991 1.2521496e-05  0.013356885   0.58798668          800     288.3684  0.026157854 
 1938000       0.0969        5e-08    11991 1.1344561e-05  0.013355332   0.58805509          800    293.54341  0.025372117 
 1939000      0.09695        5e-08    11991 1.0088499e-05  0.013353804   0.58812238          800    300.78542  0.024299192 
 1940000        0.097        5e-08    11991 1.011281e-05  0.013352313   0.58818804          800    312.77825  0.022589678 
Loop time of 17.2997 on 16 procs for 9999 steps with 11991 atoms

Pair  time (%) = 11.0247 (63.7276)
Neigh time (%) = 0 (0)
Comm  time (%) = 1.50088 (8.67575)
Outpt time (%) = 0.229947 (1.3292)
Other time (%) = 4.5442 (26.2675)

Nlocal:    749.438 ave 760 max 738 min
Histogram: 2 1 1 1 0 5 2 1 2 1
Nghost:    2105.69 ave 2121 max 2095 min
Histogram: 3 2 2 1 2 2 1 1 0 2
Neighs:    57360.2 ave 58239 max 56253 min
Histogram: 1 2 1 0 0 3 5 2 0 2

Total # of neighbors = 917764
Ave neighs/atom = 76.5377
Neighbor list builds = 0
Dangerous builds = 0
if              "${stop_criterion}>0.1" then "jump in.sample consolidation"
jump in.sample consolidation
variable        y_boxchange equal 0
variable        box_move equal 0
run             1
WARNING: Pair gran does currently not support more than one fix rigid. This may result in under-damping. (../pair_gran.cpp:224)
WARNING: More than one fix rigid (../fix_rigid.cpp:638)
WARNING: More than one fix rigid (../fix_rigid.cpp:638)
Memory usage per processor = 14.8099 Mbytes
Step Time Dt Atoms KinEng y_size solid_fr applied_ mean_for move_spe 
 1940000        0.097        5e-08    11991 1.011281e-05  0.013352313   0.58818804          800    331.51175  0.020082887 
 1940001   0.09700005        5e-08    11991   0.16311073  0.013352312   0.58818809          800    574.12676  0.002250735 
Loop time of 0.00227649 on 16 procs for 1 steps with 11991 atoms

Pair  time (%) = 0.00111409 (48.9387)
Neigh time (%) = 0 (0)
Comm  time (%) = 0.000184814 (8.11838)
Outpt time (%) = 0.000134038 (5.88793)
Other time (%) = 0.000843553 (37.055)

Nlocal:    749.438 ave 760 max 740 min
Histogram: 4 0 1 1 2 1 0 3 3 1
Nghost:    2107.38 ave 2124 max 2094 min
Histogram: 1 2 1 3 1 4 2 0 0 2
Neighs:    57445.7 ave 58313 max 56381 min
Histogram: 2 1 1 1 0 2 3 3 1 2

Total # of neighbors = 919131
Ave neighs/atom = 76.6517
Neighbor list builds = 0
Dangerous builds = 0
variable        y_boxchange equal v_y_size-${y_size}-v_move_speed*dt
variable        y_boxchange equal v_y_size-0.013352311685066-v_move_speed*dt
variable        box_move equal -1.0*v_move_speed
run             9999
WARNING: Pair gran does currently not support more than one fix rigid. This may result in under-damping. (../pair_gran.cpp:224)
WARNING: More than one fix rigid (../fix_rigid.cpp:638)
WARNING: More than one fix rigid (../fix_rigid.cpp:638)
Memory usage per processor = 14.8099 Mbytes
Step Time Dt Atoms KinEng y_size solid_fr applied_ mean_for move_spe 
 1940001   0.09700005        5e-08    11991   0.16311073  0.013352312   0.58818809          800    608.29229 0.0013760961 
 1941000      0.09705        5e-08    11991 1.2105126e-05  0.013350847   0.58825263          800    229.91762  0.036186192 
 1942000       0.0971        5e-08    11991 1.366917e-05  0.013349408   0.58831604          800    230.12484  0.036146747 
 1943000      0.09715        5e-08    11991 2.216713e-05  0.013347972   0.58837931          800    229.77935  0.036212529 
 1944000       0.0972        5e-08    11991 2.362747e-05  0.013346502   0.58844414          800    229.01648  0.036358064 
 1945000      0.09725        5e-08    11991 1.3457016e-05  0.013344995   0.58851057          800    228.04325  0.036544296 
 1946000       0.0973        5e-08    11991 7.9938658e-06  0.013343506   0.58857624          800    228.41319  0.036473433 
 1947000      0.09735        5e-08    11991 7.3489042e-06  0.013342092   0.58863861          800    228.87822  0.036384482 
 1948000       0.0974        5e-08    11991 6.8130112e-06  0.013340745   0.58869807          800    228.53943  0.036449271 
 1949000      0.09745        5e-08    11991 7.1280897e-06  0.013339441   0.58875563          800     227.6736  0.036615197 
 1950000       0.0975        5e-08    11991 8.916995e-06  0.013338173    0.5888116          800    226.89246  0.036765324 
Loop time of 17.2252 on 16 procs for 9999 steps with 11991 atoms

Pair  time (%) = 11.0534 (64.1695)
Neigh time (%) = 0 (0)
Comm  time (%) = 1.51403 (8.78962)
Outpt time (%) = 0.0400574 (0.23255)
Other time (%) = 4.6178 (26.8083)

Nlocal:    749.438 ave 760 max 740 min
Histogram: 4 0 1 1 2 1 0 3 3 1
Nghost:    2107.38 ave 2124 max 2094 min
Histogram: 1 2 1 3 1 4 2 0 0 2
Neighs:    57443.4 ave 58310 max 56380 min
Histogram: 2 1 1 1 0 2 3 3 1 2

Total # of neighbors = 919094
Ave neighs/atom = 76.6487
Neighbor list builds = 0
Dangerous builds = 0
if              "${stop_criterion}>0.1" then "jump in.sample consolidation"
jump in.sample consolidation
variable        y_boxchange equal 0
variable        box_move equal 0
run             1
WARNING: Pair gran does currently not support more than one fix rigid. This may result in under-damping. (../pair_gran.cpp:224)
WARNING: More than one fix rigid (../fix_rigid.cpp:638)
WARNING: More than one fix rigid (../fix_rigid.cpp:638)
Memory usage per processor = 14.8099 Mbytes
Step Time Dt Atoms KinEng y_size solid_fr applied_ mean_for move_spe 
 1950000       0.0975        5e-08    11991 8.916995e-06  0.013338173    0.5888116          800    240.60483  0.034188982 
 1950001   0.09750005        5e-08    11991  0.095043909  0.013338171   0.58881168          800    697.10765 0.00021275479 
Loop time of 0.00175873 on 16 procs for 1 steps with 11991 atoms

Pair  time (%) = 0.00111081 (63.1599)
Neigh time (%) = 0 (0)
Comm  time (%) = 0.000184174 (10.472)
Outpt time (%) = 0.000102838 (5.84732)
Other time (%) = 0.000360905 (20.5208)

Nlocal:    749.438 ave 760 max 740 min
Histogram: 3 1 0 2 1 2 0 6 0 1
Nghost:    2107.5 ave 2121 max 2097 min
Histogram: 3 1 2 2 0 3 3 0 0 2
Neighs:    57522.2 ave 58394 max 56600 min
Histogram: 3 0 1 1 1 1 5 2 0 2

Total # of neighbors = 920355
Ave neighs/atom = 76.7538
Neighbor list builds = 0
Dangerous builds = 0
variable        y_boxchange equal v_y_size-${y_size}-v_move_speed*dt
variable        y_boxchange equal v_y_size-0.0133381706778418-v_move_speed*dt
variable        box_move equal -1.0*v_move_speed
run             9999
WARNING: Pair gran does currently not support more than one fix rigid. This may result in under-damping. (../pair_gran.cpp:224)
WARNING: More than one fix rigid (../fix_rigid.cpp:638)
WARNING: More than one fix rigid (../fix_rigid.cpp:638)
Memory usage per processor = 14.8099 Mbytes
Step Time Dt Atoms KinEng y_size solid_fr applied_ mean_for move_spe 
 1950001   0.09750005        5e-08    11991  0.095043909  0.013338171   0.58881168          800    738.74908 4.4881557e-05 
 1951000      0.09755        5e-08    11991 1.0011974e-05  0.013336986   0.58886396          800    308.78859  0.023149168 
 1952000       0.0976        5e-08    11991 9.9524486e-06  0.013335833   0.58891488          800    312.22688  0.022666457 
 1953000      0.09765        5e-08    11991 1.0081061e-05  0.013334699   0.58896496          800    313.95283  0.022426697 
 1954000       0.0977        5e-08    11991 1.1484758e-05  0.013333574   0.58901469          800    314.43641  0.022359823 
 1955000      0.09775        5e-08    11991 1.326739e-05  0.013332448   0.58906442          800    313.75436   0.02245418 
 1956000       0.0978        5e-08    11991 9.1287401e-06  0.013331315   0.58911446          800    313.15156  0.022537793 
 1957000      0.09785        5e-08    11991 6.4881683e-06  0.013330186   0.58916439          800      315.158  0.022260286 
 1958000       0.0979        5e-08    11991 4.8552193e-06  0.013329081   0.58921323          800    320.60818     0.021518 
 1959000      0.09795        5e-08    11991 4.5167432e-06  0.013328025   0.58925992          800    329.92583  0.020287531 
 1960000        0.098        5e-08    11991 4.6005358e-06  0.013327029   0.58930394          800    339.17039  0.019113982 
Loop time of 17.2061 on 16 procs for 9999 steps with 11991 atoms

Pair  time (%) = 11.1001 (64.5124)
Neigh time (%) = 0 (0)
Comm  time (%) = 1.51324 (8.79476)
Outpt time (%) = 0.0355761 (0.206764)
Other time (%) = 4.55722 (26.4861)

Nlocal:    749.438 ave 760 max 740 min
Histogram: 3 1 0 2 1 2 0 6 0 1
Nghost:    2107.5 ave 2121 max 2097 min
Histogram: 3 1 2 2 0 3 3 0 0 2
Neighs:    57518.4 ave 58389 max 56597 min
Histogram: 3 0 1 1 1 1 5 2 0 2

Total # of neighbors = 920294
Ave neighs/atom = 76.7487
Neighbor list builds = 0
Dangerous builds = 0
if              "${stop_criterion}>0.1" then "jump in.sample consolidation"
jump in.sample consolidation
variable        y_boxchange equal 0
variable        box_move equal 0
run             1
WARNING: Pair gran does currently not support more than one fix rigid. This may result in under-damping. (../pair_gran.cpp:224)
WARNING: More than one fix rigid (../fix_rigid.cpp:638)
WARNING: More than one fix rigid (../fix_rigid.cpp:638)
Memory usage per processor = 14.8099 Mbytes
Step Time Dt Atoms KinEng y_size solid_fr applied_ mean_for move_spe 
 1960000        0.098        5e-08    11991 4.6005358e-06  0.013327029   0.58930394          800    352.25877  0.017531186 
 1960001   0.09800005        5e-08    11991   0.31217673  0.013327028   0.58930399          800    774.25218 3.3338929e-06 
Loop time of 0.00175923 on 16 procs for 1 steps with 11991 atoms

Pair  time (%) = 0.0011235 (63.8631)
Neigh time (%) = 0 (0)
Comm  time (%) = 0.000172247 (9.79108)
Outpt time (%) = 0.000100835 (5.73178)
Other time (%) = 0.000362648 (20.6141)

Nlocal:    749.438 ave 759 max 740 min
Histogram: 2 2 0 3 0 2 1 4 1 1
Nghost:    2107.19 ave 2121 max 2097 min
Histogram: 1 2 4 0 3 2 2 0 0 2
Neighs:    57576.6 ave 58317 max 56671 min
Histogram: 3 0 1 1 1 1 2 2 3 2

Total # of neighbors = 921225
Ave neighs/atom = 76.8264
Neighbor list builds = 0
Dangerous builds = 0
variable        y_boxchange equal v_y_size-${y_size}-v_move_speed*dt
variable        y_boxchange equal v_y_size-0.0133270280512446-v_move_speed*dt
variable        box_move equal -1.0*v_move_speed
run             9999
WARNING: Pair gran does currently not support more than one fix rigid. This may result in under-damping. (../pair_gran.cpp:224)
WARNING: More than one fix rigid (../fix_rigid.cpp:638)
WARNING: More than one fix rigid (../fix_rigid.cpp:638)
Memory usage per processor = 14.8099 Mbytes
Step Time Dt Atoms KinEng y_size solid_fr applied_ mean_for move_spe 
 1960001   0.09800005        5e-08    11991   0.31217673  0.013327028   0.58930399          800    820.42751 -1.6648559e-06 
 1961000      0.09805        5e-08    11991 8.8071725e-06  0.013326035   0.58934791          800    341.23043  0.018858791 
 1962000       0.0981        5e-08    11991 7.103429e-06  0.013325073   0.58939045          800    341.60071  0.018813164 
 1963000      0.09815        5e-08    11991 6.6780394e-06  0.013324123   0.58943247          800    343.58383  0.018570051 
 1964000       0.0982        5e-08    11991 6.1717546e-06  0.013323186   0.58947392          800    346.51578  0.018214472 
 1965000      0.09825        5e-08    11991 3.9039794e-06  0.013322282   0.58951394          800    354.93685  0.017218485 
 1966000       0.0983        5e-08    11991 2.5712362e-06  0.013321436   0.58955136          800    366.01955  0.015963956 
 1967000      0.09835        5e-08    11991 2.4337577e-06  0.013320647   0.58958628          800    375.23401  0.014968534 
 1968000       0.0984        5e-08    11991 2.2214197e-06  0.013319902   0.58961925          800    382.72909  0.014190064 
 1969000      0.09845        5e-08    11991 2.2548362e-06  0.013319195   0.58965057          800    389.75336   0.01348544 
 1970000       0.0985        5e-08    11991 2.7493664e-06   0.01331852   0.58968045          800    396.16309  0.012863172 
Loop time of 17.4356 on 16 procs for 9999 steps with 11991 atoms

Pair  time (%) = 11.1123 (63.7334)
Neigh time (%) = 0 (0)
Comm  time (%) = 1.52311 (8.73568)
Outpt time (%) = 0.242983 (1.39361)
Other time (%) = 4.55718 (26.1373)

Nlocal:    749.438 ave 759 max 740 min
Histogram: 2 2 0 3 0 2 1 4 1 1
Nghost:    2107.44 ave 2121 max 2097 min
Histogram: 1 2 4 0 3 1 3 0 0 2
Neighs:    57572.1 ave 58312 max 56667 min
Histogram: 3 0 1 1 1 1 2 2 3 2

Total # of neighbors = 921153
Ave neighs/atom = 76.8204
Neighbor list builds = 0
Dangerous builds = 0
if              "${stop_criterion}>0.1" then "jump in.sample consolidation"
jump in.sample consolidation
variable        y_boxchange equal 0
variable        box_move equal 0
run             1
WARNING: Pair gran does currently not support more than one fix rigid. This may result in under-damping. (../pair_gran.cpp:224)
WARNING: More than one fix rigid (../fix_rigid.cpp:638)
WARNING: More than one fix rigid (../fix_rigid.cpp:638)
Memory usage per processor = 14.8099 Mbytes
Step Time Dt Atoms KinEng y_size solid_fr applied_ mean_for move_spe 
 1970000       0.0985        5e-08    11991 2.7493664e-06   0.01331852   0.58968045          800    407.21951  0.011835313 
 1970001   0.09850005        5e-08    11991   0.55784951  0.013318519   0.58968048          800    921.31563 -0.00034872281 
Loop time of 0.00178588 on 16 procs for 1 steps with 11991 atoms

Pair  time (%) = 0.00111723 (62.5587)
Neigh time (%) = 0 (0)
Comm  time (%) = 0.000197608 (11.065)
Outpt time (%) = 0.000102794 (5.75593)
Other time (%) = 0.000368256 (20.6204)

Nlocal:    749.438 ave 758 max 740 min
Histogram: 1 3 0 3 0 1 1 2 4 1
Nghost:    2108.31 ave 2122 max 2098 min
Histogram: 1 2 3 1 4 0 3 0 1 1
Neighs:    57621.6 ave 58314 max 56692 min
Histogram: 1 2 1 1 1 1 2 3 1 3

Total # of neighbors = 921946
Ave neighs/atom = 76.8865
Neighbor list builds = 0
Dangerous builds = 0
variable        y_boxchange equal v_y_size-${y_size}-v_move_speed*dt
variable        y_boxchange equal v_y_size-0.0133185191235482-v_move_speed*dt
variable        box_move equal -1.0*v_move_speed
run             9999
WARNING: Pair gran does currently not support more than one fix rigid. This may result in under-damping. (../pair_gran.cpp:224)
WARNING: More than one fix rigid (../fix_rigid.cpp:638)
WARNING: More than one fix rigid (../fix_rigid.cpp:638)
Memory usage per processor = 14.8099 Mbytes
Step Time Dt Atoms KinEng y_size solid_fr applied_ mean_for move_spe 
 1970001   0.09850005        5e-08    11991   0.55784951  0.013318519   0.58968048          800    975.14266 -0.001049315 
 1971000      0.09855        5e-08    11991 0.00032551493  0.013317339   0.58973272          800    567.10536 0.0024672236 
 1972000       0.0986        5e-08    11991 2.5404908e-05  0.013316119   0.58978675          800    629.85085 0.00096209812 
 1973000      0.09865        5e-08    11991 1.0905143e-05  0.013314847   0.58984311          800    679.78162 0.00033934597 
 1974000       0.0987        5e-08    11991 1.786919e-05  0.013313544   0.58990083          800    689.58955 0.00026288185 
 1975000      0.09875        5e-08    11991 2.3454867e-05  0.013312237   0.58995874          800    688.44742 0.00027112459 
 1976000       0.0988        5e-08    11991 1.7873437e-05  0.013310933   0.59001657          800    691.50944 0.00024940546 
 1977000      0.09885        5e-08    11991 1.1108943e-05  0.013309616   0.59007495          800    707.33359 0.0001554165 
 1978000       0.0989        5e-08    11991 7.9078807e-06  0.013308249   0.59013553          800    754.29375 1.8649052e-05 
 1979000      0.09895        5e-08    11991 8.7881184e-06   0.01330679   0.59020024          800    810.60311 -2.3282504e-07 
 1980000        0.099        5e-08    11991 8.6219932e-06  0.013305242    0.5902689          800    860.86773 -4.404447e-05 
Loop time of 17.3326 on 16 procs for 9999 steps with 11991 atoms

Pair  time (%) = 11.1291 (64.2093)
Neigh time (%) = 0 (0)
Comm  time (%) = 1.52301 (8.78699)
Outpt time (%) = 0.0286744 (0.165436)
Other time (%) = 4.65177 (26.8383)

Nlocal:    749.438 ave 758 max 740 min
Histogram: 1 3 0 3 0 1 1 2 4 1
Nghost:    2108.31 ave 2122 max 2098 min
Histogram: 1 2 3 1 4 0 3 0 1 1
Neighs:    57617.2 ave 58310 max 56690 min
Histogram: 1 2 1 1 1 1 2 3 1 3

Total # of neighbors = 921876
Ave neighs/atom = 76.8807
Neighbor list builds = 0
Dangerous builds = 0
if              "${stop_criterion}>0.1" then "jump in.sample consolidation"
if              "${energy}>0.00001" then "jump in.sample consolidation"

undump          mesh_dump1
undump          mesh_dump2
unfix           granwall
unfix           topmove
unfix           bottommove
unfix           ydeform
unfix           topwall
unfix           bottomwall
write_restart   post/Assembly-${try}.restart
write_restart   post/Assembly-1.restart
WARNING: Pair gran does currently not support more than one fix rigid. This may result in under-damping. (../pair_gran.cpp:224)
WARNING: More than one fix rigid (../fix_rigid.cpp:638)
WARNING: More than one fix rigid (../fix_rigid.cpp:638)
